ESCALE ; pCOHP file generated by LOBSTER. Energy is shifted such that the Fermi level lies at 0 eV.
        42          2        801  -2.01879e+01   1.98622e+01   4.84340e+00 
Average
No.1:Zr1->O3(2.1205849525071976)
No.1:Zr1[4s]->O3[2s](2.1205849525071976)
No.1:Zr1[4s]->O3[2p_y](2.1205849525071976)
No.1:Zr1[4s]->O3[2p_z](2.1205849525071976)
No.1:Zr1[4s]->O3[2p_x](2.1205849525071976)
No.1:Zr1[5s]->O3[2s](2.1205849525071976)
No.1:Zr1[5s]->O3[2p_y](2.1205849525071976)
No.1:Zr1[5s]->O3[2p_z](2.1205849525071976)
No.1:Zr1[5s]->O3[2p_x](2.1205849525071976)
No.1:Zr1[4p_y]->O3[2s](2.1205849525071976)
No.1:Zr1[4p_y]->O3[2p_y](2.1205849525071976)
No.1:Zr1[4p_y]->O3[2p_z](2.1205849525071976)
No.1:Zr1[4p_y]->O3[2p_x](2.1205849525071976)
No.1:Zr1[4p_z]->O3[2s](2.1205849525071976)
No.1:Zr1[4p_z]->O3[2p_y](2.1205849525071976)
No.1:Zr1[4p_z]->O3[2p_z](2.1205849525071976)
No.1:Zr1[4p_z]->O3[2p_x](2.1205849525071976)
No.1:Zr1[4p_x]->O3[2s](2.1205849525071976)
No.1:Zr1[4p_x]->O3[2p_y](2.1205849525071976)
No.1:Zr1[4p_x]->O3[2p_z](2.1205849525071976)
No.1:Zr1[4p_x]->O3[2p_x](2.1205849525071976)
No.1:Zr1[4d_xy]->O3[2s](2.1205849525071976)
No.1:Zr1[4d_xy]->O3[2p_y](2.1205849525071976)
No.1:Zr1[4d_xy]->O3[2p_z](2.1205849525071976)
No.1:Zr1[4d_xy]->O3[2p_x](2.1205849525071976)
No.1:Zr1[4d_yz]->O3[2s](2.1205849525071976)
No.1:Zr1[4d_yz]->O3[2p_y](2.1205849525071976)
No.1:Zr1[4d_yz]->O3[2p_z](2.1205849525071976)
No.1:Zr1[4d_yz]->O3[2p_x](2.1205849525071976)
No.1:Zr1[4d_z^2]->O3[2s](2.1205849525071976)
No.1:Zr1[4d_z^2]->O3[2p_y](2.1205849525071976)
No.1:Zr1[4d_z^2]->O3[2p_z](2.1205849525071976)
No.1:Zr1[4d_z^2]->O3[2p_x](2.1205849525071976)
No.1:Zr1[4d_xz]->O3[2s](2.1205849525071976)
No.1:Zr1[4d_xz]->O3[2p_y](2.1205849525071976)
No.1:Zr1[4d_xz]->O3[2p_z](2.1205849525071976)
No.1:Zr1[4d_xz]->O3[2p_x](2.1205849525071976)
No.1:Zr1[4d_x^2-y^2]->O3[2s](2.1205849525071976)
No.1:Zr1[4d_x^2-y^2]->O3[2p_y](2.1205849525071976)
No.1:Zr1[4d_x^2-y^2]->O3[2p_z](2.1205849525071976)
No.1:Zr1[4d_x^2-y^2]->O3[2p_x](2.1205849525071976)
-25.03129   0.00000  -0.03131   0.00000  -0.64187   0.00000  -0.01076   0.00000   0.00000   0.00000  -0.36102   0.00000  -0.00000   0.00000  -0.01501   0.00000   0.00000   0.00000   0.00752   0.00000  -0.00000   0.00000  -0.00000   0.00000  -0.00579   0.00000  -0.00000   0.00000  -0.00000   0.00000  -0.09684   0.00000   0.00000   0.00000  -0.14499   0.00000  -0.00000   0.00000  -0.00000   0.00000  -0.00001   0.00000  -0.00000   0.00000  -0.00572   0.00000  -0.00001   0.00000   0.00000   0.00000  -0.00016   0.00000  -0.00000   0.00000  -0.00000   0.00000  -0.00128   0.00000  -0.00000   0.00000  -0.00001   0.00000  -0.01590   0.00000   0.00000   0.00000   0.00940   0.00000   0.00000   0.00000  -0.00000   0.00000  -0.00001   0.00000  -0.00000   0.00000  -0.00128   0.00000   0.00000   0.00000   0.00000   0.00000  -0.00000   0.00000   0.00000   0.00000  -0.03131   0.00000  -0.64175   0.00000  -0.01070   0.00000   0.00000   0.00000  -0.36096   0.00000   0.00000   0.00000  -0.01500   0.00000   0.00000   0.00000   0.00750   0.00000   0.00000   0.00000  -0.00000   0.00000  -0.00577   0.00000  -0.00000   0.00000  -0.00000   0.00000  -0.09687   0.00000  -0.00000   0.00000  -0.14497   0.00000   0.00000   0.00000  -0.00000   0.00000  -0.00001   0.00000  -0.00000   0.00000  -0.00574   0.00000  -0.00001   0.00000   0.00000   0.00000  -0.00016   0.00000   0.00000   0.00000  -0.00000   0.00000  -0.00128   0.00000  -0.00000   0.00000  -0.00001   0.00000  -0.01590   0.00000   0.00000   0.00000   0.00940   0.00000   0.00000   0.00000  -0.00000   0.00000  -0.00001   0.00000  -0.00000   0.00000  -0.00128   0.00000   0.00000   0.00000   0.00000   0.00000   0.00000   0.00000   0.00000
-24.98123   0.00000  -0.03131   0.00000  -0.64187   0.00000  -0.01076  -0.00000   0.00000  -0.00000  -0.36102  -0.00000  -0.00000  -0.00000  -0.01501   0.00000   0.00000   0.00000   0.00752  -0.00000  -0.00000   0.00000  -0.00000   0.00000  -0.00579   0.00000  -0.00000  -0.00000  -0.00000   0.00000  -0.09684  -0.00000   0.00000  -0.00000  -0.14499   0.00000  -0.00000  -0.00000  -0.00000  -0.00000  -0.00001  -0.00000  -0.00000   0.00000  -0.00572   0.00000  -0.00001   0.00000   0.00000  -0.00000  -0.00016   0.00000  -0.00000   0.00000  -0.00000  -0.00000  -0.00128  -0.00000  -0.00000  -0.00000  -0.00001  -0.00000  -0.01590   0.00000   0.00000  -0.00000   0.00940  -0.00000   0.00000   0.00000  -0.00000  -0.00000  -0.00001   0.00000  -0.00000  -0.00000  -0.00128   0.00000   0.00000   0.00000   0.00000   0.00000  -0.00000   0.00000   0.00000   0.00000  -0.03131   0.00000  -0.64175   0.00000  -0.01070  -0.00000   0.00000  -0.00000  -0.36096   0.00000   0.00000  -0.00000  -0.01500   0.00000   0.00000   0.00000   0.00750   0.00000   0.00000   0.00000  -0.00000   0.00000  -0.00577  -0.00000  -0.00000  -0.00000  -0.00000   0.00000  -0.09687  -0.00000  -0.00000  -0.00000  -0.14497   0.00000   0.00000  -0.00000  -0.00000  -0.00000  -0.00001   0.00000  -0.00000   0.00000  -0.00574   0.00000  -0.00001   0.00000   0.00000  -0.00000  -0.00016  -0.00000   0.00000   0.00000  -0.00000  -0.00000  -0.00128   0.00000  -0.00000  -0.00000  -0.00001  -0.00000  -0.01590   0.00000   0.00000  -0.00000   0.00940  -0.00000   0.00000   0.00000  -0.00000  -0.00000  -0.00001   0.00000  -0.00000  -0.00000  -0.00128   0.00000   0.00000   0.00000   0.00000   0.00000   0.00000  -0.00000   0.00000
-24.93116   0.00000  -0.03131   0.00000  -0.64187   0.00000  -0.01076  -0.00000   0.00000  -0.00000  -0.36102  -0.00000  -0.00000  -0.00000  -0.01501  -0.00000   0.00000   0.00000   0.00752  -0.00000  -0.00000   0.00000  -0.00000   0.00000  -0.00579   0.00000  -0.00000  -0.00000  -0.00000   0.00000  -0.09684  -0.00000   0.00000  -0.00000  -0.14499   0.00000  -0.00000  -0.00000  -0.00000  -0.00000  -0.00001  -0.00000  -0.00000   0.00000  -0.00572   0.00000  -0.00001   0.00000   0.00000  -0.00000  -0.00016   0.00000  -0.00000  -0.00000  -0.00000  -0.00000  -0.00128  -0.00000  -0.00000  -0.00000  -0.00001   0.00000  -0.01590   0.00000   0.00000  -0.00000   0.00940  -0.00000   0.00000   0.00000  -0.00000  -0.00000  -0.00001   0.00000  -0.00000  -0.00000  -0.00128   0.00000   0.00000   0.00000   0.00000   0.00000  -0.00000   0.00000   0.00000   0.00000  -0.03131   0.00000  -0.64175   0.00000  -0.01070  -0.00000   0.00000  -0.00000  -0.36096   0.00000   0.00000  -0.00000  -0.01500  -0.00000   0.00000   0.00000   0.00750   0.00000   0.00000   0.00000  -0.00000   0.00000  -0.00577  -0.00000  -0.00000  -0.00000  -0.00000   0.00000  -0.09687  -0.00000  -0.00000  -0.00000  -0.14497   0.00000   0.00000  -0.00000  -0.00000  -0.00000  -0.00001   0.00000  -0.00000   0.00000  -0.00574   0.00000  -0.00001   0.00000   0.00000  -0.00000  -0.00016  -0.00000   0.00000  -0.00000  -0.00000  -0.00000  -0.00128  -0.00000  -0.00000  -0.00000  -0.00001   0.00000  -0.01590   0.00000   0.00000  -0.00000   0.00940  -0.00000   0.00000   0.00000  -0.00000  -0.00000  -0.00001   0.00000  -0.00000  -0.00000  -0.00128   0.00000   0.00000   0.00000   0.00000   0.00000   0.00000  -0.00000   0.00000
-24.88110   0.00000  -0.03131   0.00000  -0.64187   0.00000  -0.01076  -0.00000   0.00000  -0.00000  -0.36102  -0.00000  -0.00000  -0.00000  -0.01501  -0.00000   0.00000   0.00000   0.00752  -0.00000  -0.00000   0.00000  -0.00000   0.00000  -0.00579   0.00000  -0.00000  -0.00000  -0.00000   0.00000  -0.09684  -0.00000   0.00000  -0.00000  -0.14499   0.00000  -0.00000  -0.00000  -0.00000  -0.00000  -0.00001  -0.00000  -0.00000   0.00000  -0.00572   0.00000  -0.00001   0.00000   0.00000  -0.00000  -0.00016   0.00000  -0.00000  -0.00000  -0.00000  -0.00000  -0.00128  -0.00000  -0.00000  -0.00000  -0.00001   0.00000  -0.01590   0.00000   0.00000  -0.00000   0.00940  -0.00000   0.00000   0.00000  -0.00000  -0.00000  -0.00001   0.00000  -0.00000  -0.00000  -0.00128   0.00000   0.00000   0.00000   0.00000   0.00000  -0.00000   0.00000   0.00000   0.00000  -0.03131   0.00000  -0.64175   0.00000  -0.01070  -0.00000   0.00000  -0.00000  -0.36096   0.00000   0.00000  -0.00000  -0.01500  -0.00000   0.00000   0.00000   0.00750   0.00000   0.00000   0.00000  -0.00000   0.00000  -0.00577  -0.00000  -0.00000  -0.00000  -0.00000   0.00000  -0.09687  -0.00000  -0.00000  -0.00000  -0.14497   0.00000   0.00000  -0.00000  -0.00000  -0.00000  -0.00001   0.00000  -0.00000   0.00000  -0.00574   0.00000  -0.00001   0.00000   0.00000  -0.00000  -0.00016  -0.00000   0.00000  -0.00000  -0.00000  -0.00000  -0.00128  -0.00000  -0.00000  -0.00000  -0.00001   0.00000  -0.01590   0.00000   0.00000  -0.00000   0.00940  -0.00000   0.00000   0.00000  -0.00000  -0.00000  -0.00001   0.00000  -0.00000  -0.00000  -0.00128   0.00000   0.00000   0.00000   0.00000   0.00000   0.00000   0.00000   0.00000
-24.83104   0.00000  -0.03131   0.00000  -0.64187   0.00000  -0.01076  -0.00000   0.00000  -0.00000  -0.36102  -0.00000  -0.00000  -0.00000  -0.01501  -0.00000   0.00000   0.00000   0.00752  -0.00000  -0.00000   0.00000  -0.00000   0.00000  -0.00579   0.00000  -0.00000  -0.00000  -0.00000   0.00000  -0.09684  -0.00000   0.00000  -0.00000  -0.14499   0.00000  -0.00000  -0.00000  -0.00000  -0.00000  -0.00001  -0.00000  -0.00000   0.00000  -0.00572   0.00000  -0.00001   0.00000   0.00000  -0.00000  -0.00016   0.00000  -0.00000  -0.00000  -0.00000  -0.00000  -0.00128  -0.00000  -0.00000  -0.00000  -0.00001   0.00000  -0.01590   0.00000   0.00000  -0.00000   0.00940  -0.00000   0.00000   0.00000  -0.00000  -0.00000  -0.00001   0.00000  -0.00000  -0.00000  -0.00128   0.00000   0.00000   0.00000   0.00000   0.00000  -0.00000  -0.00000   0.00000   0.00000  -0.03131   0.00000  -0.64175   0.00000  -0.01070  -0.00000   0.00000  -0.00000  -0.36096   0.00000   0.00000  -0.00000  -0.01500  -0.00000   0.00000   0.00000   0.00750   0.00000   0.00000   0.00000  -0.00000   0.00000  -0.00577  -0.00000  -0.00000  -0.00000  -0.00000   0.00000  -0.09687  -0.00000  -0.00000  -0.00000  -0.14497   0.00000   0.00000  -0.00000  -0.00000  -0.00000  -0.00001   0.00000  -0.00000   0.00000  -0.00574   0.00000  -0.00001   0.00000   0.00000  -0.00000  -0.00016  -0.00000   0.00000  -0.00000  -0.00000  -0.00000  -0.00128  -0.00000  -0.00000  -0.00000  -0.00001   0.00000  -0.01590   0.00000   0.00000  -0.00000   0.00940  -0.00000   0.00000   0.00000  -0.00000  -0.00000  -0.00001   0.00000  -0.00000  -0.00000  -0.00128   0.00000   0.00000   0.00000   0.00000  -0.00000   0.00000   0.00000   0.00000
-24.78098   0.00000  -0.03131   0.00000  -0.64187   0.00000  -0.01076  -0.00000   0.00000  -0.00000  -0.36102  -0.00000  -0.00000  -0.00000  -0.01501  -0.00000   0.00000   0.00000   0.00752  -0.00000  -0.00000   0.00000  -0.00000   0.00000  -0.00579   0.00000  -0.00000  -0.00000  -0.00000   0.00000  -0.09684  -0.00000   0.00000  -0.00000  -0.14499   0.00000  -0.00000  -0.00000  -0.00000  -0.00000  -0.00001  -0.00000  -0.00000   0.00000  -0.00572   0.00000  -0.00001   0.00000   0.00000  -0.00000  -0.00016   0.00000  -0.00000  -0.00000  -0.00000  -0.00000  -0.00128  -0.00000  -0.00000  -0.00000  -0.00001   0.00000  -0.01590   0.00000   0.00000  -0.00000   0.00940  -0.00000   0.00000   0.00000  -0.00000  -0.00000  -0.00001   0.00000  -0.00000  -0.00000  -0.00128   0.00000   0.00000   0.00000   0.00000  -0.00000  -0.00000  -0.00000   0.00000   0.00000  -0.03131   0.00000  -0.64175   0.00000  -0.01070  -0.00000   0.00000  -0.00000  -0.36096   0.00000   0.00000  -0.00000  -0.01500  -0.00000   0.00000   0.00000   0.00750   0.00000   0.00000   0.00000  -0.00000   0.00000  -0.00577  -0.00000  -0.00000  -0.00000  -0.00000   0.00000  -0.09687  -0.00000  -0.00000  -0.00000  -0.14497   0.00000   0.00000  -0.00000  -0.00000  -0.00000  -0.00001   0.00000  -0.00000   0.00000  -0.00574   0.00000  -0.00001   0.00000   0.00000  -0.00000  -0.00016  -0.00000   0.00000  -0.00000  -0.00000  -0.00000  -0.00128  -0.00000  -0.00000  -0.00000  -0.00001   0.00000  -0.01590   0.00000   0.00000  -0.00000   0.00940  -0.00000   0.00000   0.00000  -0.00000  -0.00000  -0.00001   0.00000  -0.00000  -0.00000  -0.00128  -0.00000   0.00000  -0.00000   0.00000   0.00000   0.00000  -0.00000   0.00000
-24.73091   0.00000  -0.03131   0.00000  -0.64187   0.00000  -0.01076  -0.00000   0.00000  -0.00000  -0.36102  -0.00000  -0.00000  -0.00000  -0.01501   0.00000   0.00000   0.00000   0.00752  -0.00000  -0.00000   0.00000  -0.00000   0.00000  -0.00579   0.00000  -0.00000  -0.00000  -0.00000   0.00000  -0.09684  -0.00000   0.00000  -0.00000  -0.14499   0.00000  -0.00000  -0.00000  -0.00000  -0.00000  -0.00001  -0.00000  -0.00000   0.00000  -0.00572   0.00000  -0.00001   0.00000   0.00000  -0.00000  -0.00016   0.00000  -0.00000  -0.00000  -0.00000  -0.00000  -0.00128   0.00000  -0.00000  -0.00000  -0.00001   0.00000  -0.01590   0.00000   0.00000  -0.00000   0.00940  -0.00000   0.00000   0.00000  -0.00000  -0.00000  -0.00001   0.00000  -0.00000  -0.00000  -0.00128  -0.00000   0.00000  -0.00000   0.00000   0.00000  -0.00000   0.00000   0.00000   0.00000  -0.03131   0.00000  -0.64175   0.00000  -0.01070  -0.00000   0.00000  -0.00000  -0.36096   0.00000   0.00000  -0.00000  -0.01500  -0.00000   0.00000   0.00000   0.00750  -0.00000   0.00000   0.00000  -0.00000   0.00000  -0.00577  -0.00000  -0.00000  -0.00000  -0.00000   0.00000  -0.09687  -0.00000  -0.00000  -0.00000  -0.14497   0.00000   0.00000  -0.00000  -0.00000  -0.00000  -0.00001   0.00000  -0.00000   0.00000  -0.00574   0.00000  -0.00001   0.00000   0.00000  -0.00000  -0.00016  -0.00000   0.00000  -0.00000  -0.00000  -0.00000  -0.00128  -0.00000  -0.00000  -0.00000  -0.00001   0.00000  -0.01590   0.00000   0.00000  -0.00000   0.00940  -0.00000   0.00000   0.00000  -0.00000  -0.00000  -0.00001   0.00000  -0.00000  -0.00000  -0.00128  -0.00000   0.00000  -0.00000   0.00000   0.00000   0.00000  -0.00000   0.00000
-24.68085   0.00000  -0.03131   0.00000  -0.64187   0.00000  -0.01076   0.00000   0.00000   0.00000  -0.36102   0.00000  -0.00000  -0.00000  -0.01501  -0.00000   0.00000   0.00000   0.00752  -0.00000  -0.00000   0.00000  -0.00000   0.00000  -0.00579   0.00000  -0.00000  -0.00000  -0.00000   0.00000  -0.09684  -0.00000   0.00000  -0.00000  -0.14499   0.00000  -0.00000  -0.00000  -0.00000  -0.00000  -0.00001  -0.00000  -0.00000   0.00000  -0.00572   0.00000  -0.00001  -0.00000   0.00000  -0.00000  -0.00016  -0.00000  -0.00000   0.00000  -0.00000  -0.00000  -0.00128   0.00000  -0.00000  -0.00000  -0.00001  -0.00000  -0.01590   0.00000   0.00000  -0.00000   0.00940  -0.00000   0.00000   0.00000  -0.00000  -0.00000  -0.00001  -0.00000  -0.00000  -0.00000  -0.00128  -0.00000   0.00000   0.00000   0.00000   0.00000  -0.00000  -0.00000   0.00000   0.00000  -0.03131   0.00000  -0.64175   0.00000  -0.01070  -0.00000   0.00000   0.00000  -0.36096  -0.00000   0.00000  -0.00000  -0.01500  -0.00000   0.00000   0.00000   0.00750   0.00000   0.00000   0.00000  -0.00000   0.00000  -0.00577  -0.00000  -0.00000  -0.00000  -0.00000   0.00000  -0.09687  -0.00000  -0.00000  -0.00000  -0.14497  -0.00000   0.00000  -0.00000  -0.00000  -0.00000  -0.00001   0.00000  -0.00000   0.00000  -0.00574   0.00000  -0.00001   0.00000   0.00000  -0.00000  -0.00016   0.00000   0.00000   0.00000  -0.00000  -0.00000  -0.00128   0.00000  -0.00000  -0.00000  -0.00001   0.00000  -0.01590  -0.00000   0.00000  -0.00000   0.00940   0.00000   0.00000   0.00000  -0.00000  -0.00000  -0.00001   0.00000  -0.00000  -0.00000  -0.00128   0.00000   0.00000   0.00000   0.00000  -0.00000   0.00000  -0.00000   0.00000
-24.63079   0.00000  -0.03131   0.00000  -0.64187   0.00000  -0.01076   0.00000   0.00000   0.00000  -0.36102  -0.00000  -0.00000  -0.00000  -0.01501  -0.00000   0.00000   0.00000   0.00752   0.00000  -0.00000   0.00000  -0.00000   0.00000  -0.00579  -0.00000  -0.00000  -0.00000  -0.00000   0.00000  -0.09684   0.00000   0.00000  -0.00000  -0.14499   0.00000  -0.00000   0.00000  -0.00000  -0.00000  -0.00001  -0.00000  -0.00000   0.00000  -0.00572   0.00000  -0.00001   0.00000   0.00000   0.00000  -0.00016   0.00000  -0.00000  -0.00000  -0.00000  -0.00000  -0.00128  -0.00000  -0.00000  -0.00000  -0.00001   0.00000  -0.01590   0.00000   0.00000   0.00000   0.00940   0.00000   0.00000   0.00000  -0.00000  -0.00000  -0.00001  -0.00000  -0.00000  -0.00000  -0.00128   0.00000   0.00000  -0.00000   0.00000  -0.00000  -0.00000   0.00000   0.00000   0.00000  -0.03131   0.00000  -0.64175   0.00000  -0.01070  -0.00000   0.00000   0.00000  -0.36096   0.00000   0.00000   0.00000  -0.01500   0.00000   0.00000   0.00000   0.00750  -0.00000   0.00000  -0.00000  -0.00000   0.00000  -0.00577  -0.00000  -0.00000  -0.00000  -0.00000   0.00000  -0.09687   0.00000  -0.00000   0.00000  -0.14497  -0.00000   0.00000  -0.00000  -0.00000  -0.00000  -0.00001   0.00000  -0.00000   0.00000  -0.00574   0.00000  -0.00001   0.00000   0.00000   0.00000  -0.00016  -0.00000   0.00000   0.00000  -0.00000  -0.00000  -0.00128   0.00000  -0.00000  -0.00000  -0.00001   0.00000  -0.01590   0.00000   0.00000   0.00000   0.00940   0.00000   0.00000   0.00000  -0.00000  -0.00000  -0.00001   0.00000  -0.00000  -0.00000  -0.00128  -0.00000   0.00000   0.00000   0.00000  -0.00000   0.00000   0.00000   0.00000
-24.58073   0.00000  -0.03131   0.00000  -0.64187   0.00000  -0.01076  -0.00000   0.00000   0.00000  -0.36102   0.00000  -0.00000   0.00000  -0.01501   0.00000   0.00000   0.00000   0.00752   0.00000  -0.00000  -0.00000  -0.00000   0.00000  -0.00579   0.00000  -0.00000  -0.00000  -0.00000   0.00000  -0.09684   0.00000   0.00000   0.00000  -0.14499  -0.00000  -0.00000   0.00000  -0.00000  -0.00000  -0.00001   0.00000  -0.00000   0.00000  -0.00572   0.00000  -0.00001   0.00000   0.00000   0.00000  -0.00016  -0.00000  -0.00000   0.00000  -0.00000   0.00000  -0.00128   0.00000  -0.00000  -0.00000  -0.00001   0.00000  -0.01590  -0.00000   0.00000   0.00000   0.00940  -0.00000   0.00000  -0.00000  -0.00000  -0.00000  -0.00001   0.00000  -0.00000   0.00000  -0.00128   0.00000   0.00000  -0.00000   0.00000  -0.00000  -0.00000   0.00000   0.00000   0.00000  -0.03131   0.00000  -0.64175   0.00000  -0.01070   0.00000   0.00000   0.00000  -0.36096  -0.00000   0.00000   0.00000  -0.01500  -0.00000   0.00000   0.00000   0.00750  -0.00000   0.00000  -0.00000  -0.00000   0.00000  -0.00577   0.00000  -0.00000  -0.00000  -0.00000   0.00000  -0.09687   0.00000  -0.00000   0.00000  -0.14497  -0.00000   0.00000   0.00000  -0.00000  -0.00000  -0.00001   0.00000  -0.00000   0.00000  -0.00574   0.00000  -0.00001   0.00000   0.00000   0.00000  -0.00016   0.00000   0.00000  -0.00000  -0.00000   0.00000  -0.00128  -0.00000  -0.00000   0.00000  -0.00001   0.00000  -0.01590   0.00000   0.00000   0.00000   0.00940  -0.00000   0.00000  -0.00000  -0.00000   0.00000  -0.00001  -0.00000  -0.00000   0.00000  -0.00128   0.00000   0.00000  -0.00000   0.00000  -0.00000   0.00000   0.00000   0.00000
-24.53066   0.00000  -0.03131   0.00000  -0.64187   0.00000  -0.01076   0.00000   0.00000   0.00000  -0.36102  -0.00000  -0.00000   0.00000  -0.01501   0.00000   0.00000   0.00000   0.00752   0.00000  -0.00000   0.00000  -0.00000   0.00000  -0.00579   0.00000  -0.00000  -0.00000  -0.00000   0.00000  -0.09684   0.00000   0.00000   0.00000  -0.14499   0.00000  -0.00000   0.00000  -0.00000  -0.00000  -0.00001  -0.00000  -0.00000   0.00000  -0.00572   0.00000  -0.00001   0.00000   0.00000   0.00000  -0.00016   0.00000  -0.00000   0.00000  -0.00000   0.00000  -0.00128   0.00000  -0.00000   0.00000  -0.00001   0.00000  -0.01590   0.00000   0.00000   0.00000   0.00940   0.00000   0.00000   0.00000  -0.00000   0.00000  -0.00001  -0.00000  -0.00000   0.00000  -0.00128   0.00000   0.00000   0.00000   0.00000   0.00000  -0.00000   0.00000   0.00000  -0.00000  -0.03131  -0.00000  -0.64175   0.00000  -0.01070   0.00000   0.00000   0.00000  -0.36096   0.00000   0.00000   0.00000  -0.01500   0.00000   0.00000   0.00000   0.00750   0.00000   0.00000   0.00000  -0.00000   0.00000  -0.00577   0.00000  -0.00000  -0.00000  -0.00000   0.00000  -0.09687  -0.00000  -0.00000   0.00000  -0.14497  -0.00000   0.00000   0.00000  -0.00000  -0.00000  -0.00001  -0.00000  -0.00000   0.00000  -0.00574   0.00000  -0.00001  -0.00000   0.00000   0.00000  -0.00016   0.00000   0.00000   0.00000  -0.00000   0.00000  -0.00128   0.00000  -0.00000   0.00000  -0.00001   0.00000  -0.01590   0.00000   0.00000   0.00000   0.00940   0.00000   0.00000   0.00000  -0.00000   0.00000  -0.00001   0.00000  -0.00000   0.00000  -0.00128   0.00000   0.00000   0.00000   0.00000   0.00000   0.00000  -0.00000   0.00000
-24.48060   0.00000  -0.03131   0.00000  -0.64187   0.00000  -0.01076   0.00000   0.00000   0.00000  -0.36102   0.00000  -0.00000   0.00000  -0.01501   0.00000   0.00000   0.00000   0.00752   0.00000  -0.00000   0.00000  -0.00000   0.00000  -0.00579   0.00000  -0.00000   0.00000  -0.00000   0.00000  -0.09684   0.00000   0.00000   0.00000  -0.14499   0.00000  -0.00000   0.00000  -0.00000   0.00000  -0.00001   0.00000  -0.00000   0.00000  -0.00572   0.00000  -0.00001   0.00000   0.00000   0.00000  -0.00016   0.00000  -0.00000   0.00000  -0.00000   0.00000  -0.00128   0.00000  -0.00000   0.00000  -0.00001   0.00000  -0.01590   0.00000   0.00000   0.00000   0.00940   0.00000   0.00000   0.00000  -0.00000   0.00000  -0.00001   0.00000  -0.00000   0.00000  -0.00128   0.00000   0.00000   0.00000   0.00000   0.00000  -0.00000   0.00000   0.00000   0.00000  -0.03131   0.00000  -0.64175   0.00000  -0.01070   0.00000   0.00000   0.00000  -0.36096   0.00000   0.00000   0.00000  -0.01500   0.00000   0.00000   0.00000   0.00750   0.00000   0.00000   0.00000  -0.00000   0.00000  -0.00577   0.00000  -0.00000   0.00000  -0.00000   0.00000  -0.09687   0.00000  -0.00000   0.00000  -0.14497   0.00000   0.00000   0.00000  -0.00000   0.00000  -0.00001   0.00000  -0.00000   0.00000  -0.00574   0.00000  -0.00001   0.00000   0.00000   0.00000  -0.00016   0.00000   0.00000   0.00000  -0.00000   0.00000  -0.00128   0.00000  -0.00000   0.00000  -0.00001   0.00000  -0.01590   0.00000   0.00000   0.00000   0.00940   0.00000   0.00000   0.00000  -0.00000   0.00000  -0.00001   0.00000  -0.00000   0.00000  -0.00128   0.00000   0.00000   0.00000   0.00000   0.00000   0.00000   0.00000   0.00000
-24.43054   0.00000  -0.03131   0.00000  -0.64187   0.00000  -0.01076   0.00000   0.00000   0.00000  -0.36102   0.00000  -0.00000   0.00000  -0.01501   0.00000   0.00000   0.00000   0.00752   0.00000  -0.00000   0.00000  -0.00000   0.00000  -0.00579   0.00000  -0.00000   0.00000  -0.00000   0.00000  -0.09684   0.00000   0.00000   0.00000  -0.14499   0.00000  -0.00000   0.00000  -0.00000   0.00000  -0.00001   0.00000  -0.00000   0.00000  -0.00572   0.00000  -0.00001   0.00000   0.00000   0.00000  -0.00016   0.00000  -0.00000   0.00000  -0.00000   0.00000  -0.00128   0.00000  -0.00000   0.00000  -0.00001   0.00000  -0.01590   0.00000   0.00000   0.00000   0.00940   0.00000   0.00000   0.00000  -0.00000   0.00000  -0.00001   0.00000  -0.00000   0.00000  -0.00128   0.00000   0.00000   0.00000   0.00000   0.00000  -0.00000   0.00000   0.00000   0.00000  -0.03131   0.00000  -0.64175   0.00000  -0.01070   0.00000   0.00000   0.00000  -0.36096   0.00000   0.00000   0.00000  -0.01500   0.00000   0.00000   0.00000   0.00750   0.00000   0.00000   0.00000  -0.00000   0.00000  -0.00577   0.00000  -0.00000   0.00000  -0.00000   0.00000  -0.09687   0.00000  -0.00000   0.00000  -0.14497   0.00000   0.00000   0.00000  -0.00000   0.00000  -0.00001   0.00000  -0.00000   0.00000  -0.00574   0.00000  -0.00001   0.00000   0.00000   0.00000  -0.00016   0.00000   0.00000   0.00000  -0.00000   0.00000  -0.00128   0.00000  -0.00000   0.00000  -0.00001   0.00000  -0.01590   0.00000   0.00000   0.00000   0.00940   0.00000   0.00000   0.00000  -0.00000   0.00000  -0.00001   0.00000  -0.00000   0.00000  -0.00128   0.00000   0.00000   0.00000   0.00000   0.00000   0.00000   0.00000   0.00000
-24.38048   0.00000  -0.03131   0.00000  -0.64187   0.00000  -0.01076   0.00000   0.00000   0.00000  -0.36102   0.00000  -0.00000   0.00000  -0.01501   0.00000   0.00000   0.00000   0.00752   0.00000  -0.00000   0.00000  -0.00000   0.00000  -0.00579   0.00000  -0.00000   0.00000  -0.00000   0.00000  -0.09684   0.00000   0.00000   0.00000  -0.14499   0.00000  -0.00000   0.00000  -0.00000   0.00000  -0.00001   0.00000  -0.00000   0.00000  -0.00572   0.00000  -0.00001   0.00000   0.00000   0.00000  -0.00016   0.00000  -0.00000   0.00000  -0.00000   0.00000  -0.00128   0.00000  -0.00000   0.00000  -0.00001   0.00000  -0.01590   0.00000   0.00000   0.00000   0.00940   0.00000   0.00000   0.00000  -0.00000   0.00000  -0.00001   0.00000  -0.00000   0.00000  -0.00128   0.00000   0.00000   0.00000   0.00000   0.00000  -0.00000   0.00000   0.00000   0.00000  -0.03131   0.00000  -0.64175   0.00000  -0.01070   0.00000   0.00000   0.00000  -0.36096   0.00000   0.00000   0.00000  -0.01500   0.00000   0.00000   0.00000   0.00750   0.00000   0.00000   0.00000  -0.00000   0.00000  -0.00577   0.00000  -0.00000   0.00000  -0.00000   0.00000  -0.09687   0.00000  -0.00000   0.00000  -0.14497   0.00000   0.00000   0.00000  -0.00000   0.00000  -0.00001   0.00000  -0.00000   0.00000  -0.00574   0.00000  -0.00001   0.00000   0.00000   0.00000  -0.00016   0.00000   0.00000   0.00000  -0.00000   0.00000  -0.00128   0.00000  -0.00000   0.00000  -0.00001   0.00000  -0.01590   0.00000   0.00000   0.00000   0.00940   0.00000   0.00000   0.00000  -0.00000   0.00000  -0.00001   0.00000  -0.00000   0.00000  -0.00128   0.00000   0.00000   0.00000   0.00000   0.00000   0.00000   0.00000   0.00000
-24.33041   0.00000  -0.03131   0.00000  -0.64187   0.00000  -0.01076   0.00000   0.00000   0.00000  -0.36102   0.00000  -0.00000   0.00000  -0.01501   0.00000   0.00000   0.00000   0.00752   0.00000  -0.00000   0.00000  -0.00000   0.00000  -0.00579   0.00000  -0.00000   0.00000  -0.00000   0.00000  -0.09684   0.00000   0.00000   0.00000  -0.14499   0.00000  -0.00000   0.00000  -0.00000   0.00000  -0.00001   0.00000  -0.00000   0.00000  -0.00572   0.00000  -0.00001   0.00000   0.00000   0.00000  -0.00016   0.00000  -0.00000   0.00000  -0.00000   0.00000  -0.00128   0.00000  -0.00000   0.00000  -0.00001   0.00000  -0.01590   0.00000   0.00000   0.00000   0.00940   0.00000   0.00000   0.00000  -0.00000   0.00000  -0.00001   0.00000  -0.00000   0.00000  -0.00128   0.00000   0.00000   0.00000   0.00000   0.00000  -0.00000   0.00000   0.00000   0.00000  -0.03131   0.00000  -0.64175   0.00000  -0.01070   0.00000   0.00000   0.00000  -0.36096   0.00000   0.00000   0.00000  -0.01500   0.00000   0.00000   0.00000   0.00750   0.00000   0.00000   0.00000  -0.00000   0.00000  -0.00577   0.00000  -0.00000   0.00000  -0.00000   0.00000  -0.09687   0.00000  -0.00000   0.00000  -0.14497   0.00000   0.00000   0.00000  -0.00000   0.00000  -0.00001   0.00000  -0.00000   0.00000  -0.00574   0.00000  -0.00001   0.00000   0.00000   0.00000  -0.00016   0.00000   0.00000   0.00000  -0.00000   0.00000  -0.00128   0.00000  -0.00000   0.00000  -0.00001   0.00000  -0.01590   0.00000   0.00000   0.00000   0.00940   0.00000   0.00000   0.00000  -0.00000   0.00000  -0.00001   0.00000  -0.00000   0.00000  -0.00128   0.00000   0.00000   0.00000   0.00000   0.00000   0.00000   0.00000   0.00000
-24.28035   0.00000  -0.03131   0.00000  -0.64187   0.00000  -0.01076   0.00000   0.00000   0.00000  -0.36102   0.00000  -0.00000   0.00000  -0.01501   0.00000   0.00000   0.00000   0.00752   0.00000  -0.00000   0.00000  -0.00000   0.00000  -0.00579   0.00000  -0.00000   0.00000  -0.00000   0.00000  -0.09684   0.00000   0.00000   0.00000  -0.14499   0.00000  -0.00000   0.00000  -0.00000   0.00000  -0.00001   0.00000  -0.00000   0.00000  -0.00572   0.00000  -0.00001   0.00000   0.00000   0.00000  -0.00016   0.00000  -0.00000   0.00000  -0.00000   0.00000  -0.00128   0.00000  -0.00000   0.00000  -0.00001   0.00000  -0.01590   0.00000   0.00000   0.00000   0.00940   0.00000   0.00000   0.00000  -0.00000   0.00000  -0.00001   0.00000  -0.00000   0.00000  -0.00128   0.00000   0.00000   0.00000   0.00000   0.00000  -0.00000   0.00000   0.00000   0.00000  -0.03131   0.00000  -0.64175   0.00000  -0.01070   0.00000   0.00000   0.00000  -0.36096   0.00000   0.00000   0.00000  -0.01500   0.00000   0.00000   0.00000   0.00750   0.00000   0.00000   0.00000  -0.00000   0.00000  -0.00577   0.00000  -0.00000   0.00000  -0.00000   0.00000  -0.09687   0.00000  -0.00000   0.00000  -0.14497   0.00000   0.00000   0.00000  -0.00000   0.00000  -0.00001   0.00000  -0.00000   0.00000  -0.00574   0.00000  -0.00001   0.00000   0.00000   0.00000  -0.00016   0.00000   0.00000   0.00000  -0.00000   0.00000  -0.00128   0.00000  -0.00000   0.00000  -0.00001   0.00000  -0.01590   0.00000   0.00000   0.00000   0.00940   0.00000   0.00000   0.00000  -0.00000   0.00000  -0.00001   0.00000  -0.00000   0.00000  -0.00128   0.00000   0.00000   0.00000   0.00000   0.00000   0.00000   0.00000   0.00000