ESCALE ; pCOHP file generated by LOBSTER. Energy is shifted such that the Fermi level lies at 0 eV.
        26          2        801  -2.49224e+01   1.51276e+01   1.08868e-01 
Average
No.1:Y1->O3(2.2510379737549551)
No.1:Y1[5s]->O3[2s](2.2510379737549551)
No.1:Y1[5s]->O3[2p_y](2.2510379737549551)
No.1:Y1[5s]->O3[2p_z](2.2510379737549551)
No.1:Y1[5s]->O3[2p_x](2.2510379737549551)
No.1:Y1[4d_xy]->O3[2s](2.2510379737549551)
No.1:Y1[4d_xy]->O3[2p_y](2.2510379737549551)
No.1:Y1[4d_xy]->O3[2p_z](2.2510379737549551)
No.1:Y1[4d_xy]->O3[2p_x](2.2510379737549551)
No.1:Y1[4d_yz]->O3[2s](2.2510379737549551)
No.1:Y1[4d_yz]->O3[2p_y](2.2510379737549551)
No.1:Y1[4d_yz]->O3[2p_z](2.2510379737549551)
No.1:Y1[4d_yz]->O3[2p_x](2.2510379737549551)
No.1:Y1[4d_z^2]->O3[2s](2.2510379737549551)
No.1:Y1[4d_z^2]->O3[2p_y](2.2510379737549551)
No.1:Y1[4d_z^2]->O3[2p_z](2.2510379737549551)
No.1:Y1[4d_z^2]->O3[2p_x](2.2510379737549551)
No.1:Y1[4d_xz]->O3[2s](2.2510379737549551)
No.1:Y1[4d_xz]->O3[2p_y](2.2510379737549551)
No.1:Y1[4d_xz]->O3[2p_z](2.2510379737549551)
No.1:Y1[4d_xz]->O3[2p_x](2.2510379737549551)
No.1:Y1[4d_x^2-y^2]->O3[2s](2.2510379737549551)
No.1:Y1[4d_x^2-y^2]->O3[2p_y](2.2510379737549551)
No.1:Y1[4d_x^2-y^2]->O3[2p_z](2.2510379737549551)
No.1:Y1[4d_x^2-y^2]->O3[2p_x](2.2510379737549551)
-25.03129   0.00000  -0.06603   0.00000  -0.82542   0.00000  -0.00147   0.00000  -0.00001   0.00000  -0.44067   0.00000  -0.00001   0.00000  -0.00177   0.00000  -0.00000   0.00000   0.00004   0.00000   0.00000   0.00000  -0.00000   0.00000   0.00101   0.00000  -0.00000   0.00000  -0.00051   0.00000  -0.00036   0.00000  -0.00000   0.00000  -0.38216   0.00000  -0.00000   0.00000  -0.00000   0.00000  -0.00055   0.00000   0.00000   0.00000   0.00104   0.00000  -0.00000   0.00000   0.00000   0.00000   0.00000   0.00000  -0.00000   0.00000  -0.06918   0.00000  -0.86479   0.00000  -0.00821   0.00000  -0.00000   0.00000  -0.45489   0.00000  -0.00000   0.00000  -0.00208   0.00000  -0.00000   0.00000   0.00005   0.00000  -0.00000   0.00000   0.00000   0.00000   0.00094   0.00000   0.00000   0.00000  -0.00255   0.00000  -0.00037   0.00000  -0.00000   0.00000  -0.39599   0.00000  -0.00000   0.00000  -0.00000   0.00000  -0.00262   0.00000  -0.00000   0.00000   0.00095   0.00000  -0.00000   0.00000  -0.00000   0.00000   0.00000   0.00000  -0.00000
-24.98123   0.00000  -0.06603   0.00000  -0.82542   0.00000  -0.00147   0.00000  -0.00001   0.00000  -0.44067   0.00000  -0.00001   0.00000  -0.00177   0.00000  -0.00000   0.00000   0.00004   0.00000   0.00000   0.00000  -0.00000   0.00000   0.00101   0.00000  -0.00000   0.00000  -0.00051   0.00000  -0.00036   0.00000  -0.00000   0.00000  -0.38216   0.00000  -0.00000   0.00000  -0.00000   0.00000  -0.00055   0.00000   0.00000   0.00000   0.00104   0.00000  -0.00000   0.00000   0.00000   0.00000   0.00000   0.00000  -0.00000   0.00000  -0.06918   0.00000  -0.86479   0.00000  -0.00821   0.00000  -0.00000   0.00000  -0.45489   0.00000  -0.00000   0.00000  -0.00208   0.00000  -0.00000   0.00000   0.00005   0.00000  -0.00000   0.00000   0.00000   0.00000   0.00094   0.00000   0.00000   0.00000  -0.00255   0.00000  -0.00037   0.00000  -0.00000   0.00000  -0.39599   0.00000  -0.00000   0.00000  -0.00000   0.00000  -0.00262   0.00000  -0.00000   0.00000   0.00095   0.00000  -0.00000   0.00000  -0.00000   0.00000   0.00000   0.00000  -0.00000
-24.93116   0.00000  -0.06603   0.00000  -0.82542   0.00000  -0.00147   0.00000  -0.00001   0.00000  -0.44067   0.00000  -0.00001   0.00000  -0.00177   0.00000  -0.00000   0.00000   0.00004   0.00000   0.00000   0.00000  -0.00000   0.00000   0.00101   0.00000  -0.00000   0.00000  -0.00051   0.00000  -0.00036   0.00000  -0.00000   0.00000  -0.38216   0.00000  -0.00000   0.00000  -0.00000   0.00000  -0.00055   0.00000   0.00000   0.00000   0.00104   0.00000  -0.00000   0.00000   0.00000   0.00000   0.00000   0.00000  -0.00000   0.00000  -0.06918   0.00000  -0.86479   0.00000  -0.00821   0.00000  -0.00000   0.00000  -0.45489   0.00000  -0.00000   0.00000  -0.00208   0.00000  -0.00000   0.00000   0.00005   0.00000  -0.00000   0.00000   0.00000   0.00000   0.00094   0.00000   0.00000   0.00000  -0.00255   0.00000  -0.00037   0.00000  -0.00000   0.00000  -0.39599   0.00000  -0.00000   0.00000  -0.00000   0.00000  -0.00262   0.00000  -0.00000   0.00000   0.00095   0.00000  -0.00000   0.00000  -0.00000   0.00000   0.00000   0.00000  -0.00000
-24.88110   0.00000  -0.06603   0.00000  -0.82542   0.00000  -0.00147   0.00000  -0.00001   0.00000  -0.44067   0.00000  -0.00001   0.00000  -0.00177   0.00000  -0.00000   0.00000   0.00004   0.00000   0.00000   0.00000  -0.00000   0.00000   0.00101   0.00000  -0.00000   0.00000  -0.00051   0.00000  -0.00036   0.00000  -0.00000   0.00000  -0.38216   0.00000  -0.00000   0.00000  -0.00000   0.00000  -0.00055   0.00000   0.00000   0.00000   0.00104   0.00000  -0.00000   0.00000   0.00000   0.00000   0.00000   0.00000  -0.00000   0.00000  -0.06918   0.00000  -0.86479   0.00000  -0.00821   0.00000  -0.00000   0.00000  -0.45489   0.00000  -0.00000   0.00000  -0.00208   0.00000  -0.00000   0.00000   0.00005   0.00000  -0.00000   0.00000   0.00000   0.00000   0.00094   0.00000   0.00000   0.00000  -0.00255   0.00000  -0.00037   0.00000  -0.00000   0.00000  -0.39599   0.00000  -0.00000   0.00000  -0.00000   0.00000  -0.00262   0.00000  -0.00000   0.00000   0.00095   0.00000  -0.00000   0.00000  -0.00000   0.00000   0.00000   0.00000  -0.00000
-24.83104   0.00000  -0.06603   0.00000  -0.82542   0.00000  -0.00147   0.00000  -0.00001   0.00000  -0.44067   0.00000  -0.00001   0.00000  -0.00177   0.00000  -0.00000   0.00000   0.00004   0.00000   0.00000   0.00000  -0.00000   0.00000   0.00101   0.00000  -0.00000   0.00000  -0.00051   0.00000  -0.00036   0.00000  -0.00000   0.00000  -0.38216   0.00000  -0.00000   0.00000  -0.00000   0.00000  -0.00055   0.00000   0.00000   0.00000   0.00104   0.00000  -0.00000   0.00000   0.00000   0.00000   0.00000   0.00000  -0.00000   0.00000  -0.06918   0.00000  -0.86479   0.00000  -0.00821   0.00000  -0.00000   0.00000  -0.45489   0.00000  -0.00000   0.00000  -0.00208   0.00000  -0.00000   0.00000   0.00005   0.00000  -0.00000   0.00000   0.00000   0.00000   0.00094   0.00000   0.00000   0.00000  -0.00255   0.00000  -0.00037   0.00000  -0.00000   0.00000  -0.39599   0.00000  -0.00000   0.00000  -0.00000   0.00000  -0.00262   0.00000  -0.00000   0.00000   0.00095   0.00000  -0.00000   0.00000  -0.00000   0.00000   0.00000   0.00000  -0.00000
-24.78098   0.00000  -0.06603   0.00000  -0.82542   0.00000  -0.00147   0.00000  -0.00001   0.00000  -0.44067   0.00000  -0.00001   0.00000  -0.00177   0.00000  -0.00000   0.00000   0.00004   0.00000   0.00000   0.00000  -0.00000   0.00000   0.00101   0.00000  -0.00000   0.00000  -0.00051   0.00000  -0.00036   0.00000  -0.00000   0.00000  -0.38216   0.00000  -0.00000   0.00000  -0.00000   0.00000  -0.00055   0.00000   0.00000   0.00000   0.00104   0.00000  -0.00000   0.00000   0.00000   0.00000   0.00000   0.00000  -0.00000   0.00000  -0.06918   0.00000  -0.86479   0.00000  -0.00821   0.00000  -0.00000   0.00000  -0.45489   0.00000  -0.00000   0.00000  -0.00208   0.00000  -0.00000   0.00000   0.00005   0.00000  -0.00000   0.00000   0.00000   0.00000   0.00094   0.00000   0.00000   0.00000  -0.00255   0.00000  -0.00037   0.00000  -0.00000   0.00000  -0.39599   0.00000  -0.00000   0.00000  -0.00000   0.00000  -0.00262   0.00000  -0.00000   0.00000   0.00095   0.00000  -0.00000   0.00000  -0.00000   0.00000   0.00000   0.00000  -0.00000
-24.73091   0.00000  -0.06603   0.00000  -0.82542   0.00000  -0.00147   0.00000  -0.00001   0.00000  -0.44067   0.00000  -0.00001   0.00000  -0.00177   0.00000  -0.00000   0.00000   0.00004   0.00000   0.00000   0.00000  -0.00000   0.00000   0.00101   0.00000  -0.00000   0.00000  -0.00051   0.00000  -0.00036   0.00000  -0.00000   0.00000  -0.38216   0.00000  -0.00000   0.00000  -0.00000   0.00000  -0.00055   0.00000   0.00000   0.00000   0.00104   0.00000  -0.00000   0.00000   0.00000   0.00000   0.00000   0.00000  -0.00000   0.00000  -0.06918   0.00000  -0.86479   0.00000  -0.00821   0.00000  -0.00000   0.00000  -0.45489   0.00000  -0.00000   0.00000  -0.00208   0.00000  -0.00000   0.00000   0.00005   0.00000  -0.00000   0.00000   0.00000   0.00000   0.00094   0.00000   0.00000   0.00000  -0.00255   0.00000  -0.00037   0.00000  -0.00000   0.00000  -0.39599   0.00000  -0.00000   0.00000  -0.00000   0.00000  -0.00262   0.00000  -0.00000   0.00000   0.00095   0.00000  -0.00000   0.00000  -0.00000   0.00000   0.00000   0.00000  -0.00000
-24.68085   0.00000  -0.06603   0.00000  -0.82542   0.00000  -0.00147   0.00000  -0.00001   0.00000  -0.44067   0.00000  -0.00001   0.00000  -0.00177   0.00000  -0.00000   0.00000   0.00004   0.00000   0.00000   0.00000  -0.00000   0.00000   0.00101   0.00000  -0.00000   0.00000  -0.00051   0.00000  -0.00036   0.00000  -0.00000   0.00000  -0.38216   0.00000  -0.00000   0.00000  -0.00000   0.00000  -0.00055   0.00000   0.00000   0.00000   0.00104   0.00000  -0.00000   0.00000   0.00000   0.00000   0.00000   0.00000  -0.00000   0.00000  -0.06918   0.00000  -0.86479   0.00000  -0.00821   0.00000  -0.00000   0.00000  -0.45489   0.00000  -0.00000   0.00000  -0.00208   0.00000  -0.00000   0.00000   0.00005   0.00000  -0.00000   0.00000   0.00000   0.00000   0.00094   0.00000   0.00000   0.00000  -0.00255   0.00000  -0.00037   0.00000  -0.00000   0.00000  -0.39599   0.00000  -0.00000   0.00000  -0.00000   0.00000  -0.00262   0.00000  -0.00000   0.00000   0.00095   0.00000  -0.00000   0.00000  -0.00000   0.00000   0.00000   0.00000  -0.00000
-24.63079   0.00000  -0.06603   0.00000  -0.82542   0.00000  -0.00147   0.00000  -0.00001   0.00000  -0.44067   0.00000  -0.00001   0.00000  -0.00177   0.00000  -0.00000   0.00000   0.00004   0.00000   0.00000   0.00000  -0.00000   0.00000   0.00101   0.00000  -0.00000   0.00000  -0.00051   0.00000  -0.00036   0.00000  -0.00000   0.00000  -0.38216   0.00000  -0.00000   0.00000  -0.00000   0.00000  -0.00055   0.00000   0.00000   0.00000   0.00104   0.00000  -0.00000   0.00000   0.00000   0.00000   0.00000   0.00000  -0.00000   0.00000  -0.06918   0.00000  -0.86479   0.00000  -0.00821   0.00000  -0.00000   0.00000  -0.45489   0.00000  -0.00000   0.00000  -0.00208   0.00000  -0.00000   0.00000   0.00005   0.00000  -0.00000   0.00000   0.00000   0.00000   0.00094   0.00000   0.00000   0.00000  -0.00255   0.00000  -0.00037   0.00000  -0.00000   0.00000  -0.39599   0.00000  -0.00000   0.00000  -0.00000   0.00000  -0.00262   0.00000  -0.00000   0.00000   0.00095   0.00000  -0.00000   0.00000  -0.00000   0.00000   0.00000   0.00000  -0.00000
-24.58073   0.00000  -0.06603   0.00000  -0.82542   0.00000  -0.00147   0.00000  -0.00001   0.00000  -0.44067   0.00000  -0.00001   0.00000  -0.00177   0.00000  -0.00000   0.00000   0.00004   0.00000   0.00000   0.00000  -0.00000   0.00000   0.00101   0.00000  -0.00000   0.00000  -0.00051   0.00000  -0.00036   0.00000  -0.00000   0.00000  -0.38216   0.00000  -0.00000   0.00000  -0.00000   0.00000  -0.00055   0.00000   0.00000   0.00000   0.00104   0.00000  -0.00000   0.00000   0.00000   0.00000   0.00000   0.00000  -0.00000   0.00000  -0.06918   0.00000  -0.86479   0.00000  -0.00821   0.00000  -0.00000   0.00000  -0.45489   0.00000  -0.00000   0.00000  -0.00208   0.00000  -0.00000   0.00000   0.00005   0.00000  -0.00000   0.00000   0.00000   0.00000   0.00094   0.00000   0.00000   0.00000  -0.00255   0.00000  -0.00037   0.00000  -0.00000   0.00000  -0.39599   0.00000  -0.00000   0.00000  -0.00000   0.00000  -0.00262   0.00000  -0.00000   0.00000   0.00095   0.00000  -0.00000   0.00000  -0.00000   0.00000   0.00000   0.00000  -0.00000
-24.53066   0.00000  -0.06603   0.00000  -0.82542   0.00000  -0.00147   0.00000  -0.00001   0.00000  -0.44067   0.00000  -0.00001   0.00000  -0.00177   0.00000  -0.00000   0.00000   0.00004   0.00000   0.00000   0.00000  -0.00000   0.00000   0.00101   0.00000  -0.00000   0.00000  -0.00051   0.00000  -0.00036   0.00000  -0.00000   0.00000  -0.38216   0.00000  -0.00000   0.00000  -0.00000   0.00000  -0.00055   0.00000   0.00000   0.00000   0.00104   0.00000  -0.00000   0.00000   0.00000   0.00000   0.00000   0.00000  -0.00000   0.00000  -0.06918   0.00000  -0.86479   0.00000  -0.00821   0.00000  -0.00000   0.00000  -0.45489   0.00000  -0.00000   0.00000  -0.00208   0.00000  -0.00000   0.00000   0.00005   0.00000  -0.00000   0.00000   0.00000   0.00000   0.00094   0.00000   0.00000   0.00000  -0.00255   0.00000  -0.00037   0.00000  -0.00000   0.00000  -0.39599   0.00000  -0.00000   0.00000  -0.00000   0.00000  -0.00262   0.00000  -0.00000   0.00000   0.00095   0.00000  -0.00000   0.00000  -0.00000   0.00000   0.00000   0.00000  -0.00000
-24.48060   0.00000  -0.06603   0.00000  -0.82542   0.00000  -0.00147   0.00000  -0.00001   0.00000  -0.44067   0.00000  -0.00001   0.00000  -0.00177   0.00000  -0.00000   0.00000   0.00004   0.00000   0.00000   0.00000  -0.00000   0.00000   0.00101   0.00000  -0.00000   0.00000  -0.00051   0.00000  -0.00036   0.00000  -0.00000   0.00000  -0.38216   0.00000  -0.00000   0.00000  -0.00000   0.00000  -0.00055   0.00000   0.00000   0.00000   0.00104   0.00000  -0.00000   0.00000   0.00000   0.00000   0.00000   0.00000  -0.00000   0.00000  -0.06918   0.00000  -0.86479   0.00000  -0.00821   0.00000  -0.00000   0.00000  -0.45489   0.00000  -0.00000   0.00000  -0.00208   0.00000  -0.00000   0.00000   0.00005   0.00000  -0.00000   0.00000   0.00000   0.00000   0.00094   0.00000   0.00000   0.00000  -0.00255   0.00000  -0.00037   0.00000  -0.00000   0.00000  -0.39599   0.00000  -0.00000   0.00000  -0.00000   0.00000  -0.00262   0.00000  -0.00000   0.00000   0.00095   0.00000  -0.00000   0.00000  -0.00000   0.00000   0.00000   0.00000  -0.00000
-24.43054   0.00000  -0.06603   0.00000  -0.82542   0.00000  -0.00147   0.00000  -0.00001   0.00000  -0.44067   0.00000  -0.00001   0.00000  -0.00177   0.00000  -0.00000   0.00000   0.00004   0.00000   0.00000   0.00000  -0.00000   0.00000   0.00101   0.00000  -0.00000   0.00000  -0.00051   0.00000  -0.00036   0.00000  -0.00000   0.00000  -0.38216   0.00000  -0.00000   0.00000  -0.00000   0.00000  -0.00055   0.00000   0.00000   0.00000   0.00104   0.00000  -0.00000   0.00000   0.00000   0.00000   0.00000   0.00000  -0.00000   0.00000  -0.06918   0.00000  -0.86479   0.00000  -0.00821   0.00000  -0.00000   0.00000  -0.45489   0.00000  -0.00000   0.00000  -0.00208   0.00000  -0.00000   0.00000   0.00005   0.00000  -0.00000   0.00000   0.00000   0.00000   0.00094   0.00000   0.00000   0.00000  -0.00255   0.00000  -0.00037   0.00000  -0.00000   0.00000  -0.39599   0.00000  -0.00000   0.00000  -0.00000   0.00000  -0.00262   0.00000  -0.00000   0.00000   0.00095   0.00000  -0.00000   0.00000  -0.00000   0.00000   0.00000   0.00000  -0.00000
-24.38048   0.00000  -0.06603   0.00000  -0.82542   0.00000  -0.00147   0.00000  -0.00001   0.00000  -0.44067   0.00000  -0.00001   0.00000  -0.00177   0.00000  -0.00000   0.00000   0.00004   0.00000   0.00000   0.00000  -0.00000   0.00000   0.00101   0.00000  -0.00000   0.00000  -0.00051   0.00000  -0.00036   0.00000  -0.00000   0.00000  -0.38216   0.00000  -0.00000   0.00000  -0.00000   0.00000  -0.00055   0.00000   0.00000   0.00000   0.00104   0.00000  -0.00000   0.00000   0.00000   0.00000   0.00000   0.00000  -0.00000   0.00000  -0.06918   0.00000  -0.86479   0.00000  -0.00821   0.00000  -0.00000   0.00000  -0.45489   0.00000  -0.00000   0.00000  -0.00208   0.00000  -0.00000   0.00000   0.00005   0.00000  -0.00000   0.00000   0.00000   0.00000   0.00094   0.00000   0.00000   0.00000  -0.00255   0.00000  -0.00037   0.00000  -0.00000   0.00000  -0.39599   0.00000  -0.00000   0.00000  -0.00000   0.00000  -0.00262   0.00000  -0.00000   0.00000   0.00095   0.00000  -0.00000   0.00000  -0.00000   0.00000   0.00000   0.00000  -0.00000
-24.33041   0.00000  -0.06603   0.00000  -0.82542   0.00000  -0.00147   0.00000  -0.00001   0.00000  -0.44067   0.00000  -0.00001   0.00000  -0.00177   0.00000  -0.00000   0.00000   0.00004   0.00000   0.00000   0.00000  -0.00000   0.00000   0.00101   0.00000  -0.00000   0.00000  -0.00051   0.00000  -0.00036   0.00000  -0.00000   0.00000  -0.38216   0.00000  -0.00000   0.00000  -0.00000   0.00000  -0.00055   0.00000   0.00000   0.00000   0.00104   0.00000  -0.00000   0.00000   0.00000   0.00000   0.00000   0.00000  -0.00000   0.00000  -0.06918   0.00000  -0.86479   0.00000  -0.00821   0.00000  -0.00000   0.00000  -0.45489   0.00000  -0.00000   0.00000  -0.00208   0.00000  -0.00000   0.00000   0.00005   0.00000  -0.00000   0.00000   0.00000   0.00000   0.00094   0.00000   0.00000   0.00000  -0.00255   0.00000  -0.00037   0.00000  -0.00000   0.00000  -0.39599   0.00000  -0.00000   0.00000  -0.00000   0.00000  -0.00262   0.00000  -0.00000   0.00000   0.00095   0.00000  -0.00000   0.00000  -0.00000   0.00000   0.00000   0.00000  -0.00000
-24.28035   0.00000  -0.06603   0.00000  -0.82542   0.00000  -0.00147   0.00000  -0.00001   0.00000  -0.44067   0.00000  -0.00001   0.00000  -0.00177   0.00000  -0.00000   0.00000   0.00004   0.00000   0.00000   0.00000  -0.00000   0.00000   0.00101   0.00000  -0.00000   0.00000  -0.00051   0.00000  -0.00036   0.00000  -0.00000   0.00000  -0.38216   0.00000  -0.00000   0.00000  -0.00000   0.00000  -0.00055   0.00000   0.00000   0.00000   0.00104   0.00000  -0.00000   0.00000   0.00000   0.00000   0.00000   0.00000  -0.00000   0.00000  -0.06918   0.00000  -0.86479   0.00000  -0.00821   0.00000  -0.00000   0.00000  -0.45489   0.00000  -0.00000   0.00000  -0.00208   0.00000  -0.00000   0.00000   0.00005   0.00000  -0.00000   0.00000   0.00000   0.00000   0.00094   0.00000   0.00000   0.00000  -0.00255   0.00000  -0.00037   0.00000  -0.00000   0.00000  -0.39599   0.00000  -0.00000   0.00000  -0.00000   0.00000  -0.00262   0.00000  -0.00000   0.00000   0.00095   0.00000  -0.00000   0.00000  -0.00000   0.00000   0.00000   0.00000  -0.00000
-24.23029   0.00000  -0.06603   0.00000  -0.82542   0.00000  -0.00147   0.00000  -0.00001   0.00000  -0.44067   0.00000  -0.00001   0.00000  -0.00177   0.00000  -0.00000   0.00000   0.00004   0.00000   0.00000   0.00000  -0.00000   0.00000   0.00101   0.00000  -0.00000   0.00000  -0.00051   0.00000  -0.00036   0.00000  -0.00000   0.00000  -0.38216   0.00000  -0.00000   0.00000  -0.00000   0.00000  -0.00055   0.00000   0.00000   0.00000   0.00104   0.00000  -0.00000   0.00000   0.00000   0.00000   0.00000   0.00000  -0.00000   0.00000  -0.06918   0.00000  -0.86479   0.00000  -0.00821   0.00000  -0.00000   0.00000  -0.45489   0.00000  -0.00000   0.00000  -0.00208   0.00000  -0.00000   0.00000   0.00005   0.00000  -0.00000   0.00000   0.00000   0.00000   0.00094   0.00000   0.00000   0.00000  -0.00255   0.00000  -0.00037   0.00000  -0.00000   0.00000  -0.39599   0.00000  -0.00000   0.00000  -0.00000   0.00000  -0.00262   0.00000  -0.00000   0.00000   0.00095   0.00000  -0.00000   0.00000  -0.00000   0.00000   0.00000   0.00000  -0.00000
-24.18023   0.00000  -0.06603   0.00000  -0.82542   0.00000  -0.00147   0.00000  -0.00001   0.00000  -0.44067   0.00000  -0.00001   0.00000  -0.00177   0.00000  -0.00000   0.00000   0.00004   0.00000   0.00000   0.00000  -0.00000   0.00000   0.00101   0.00000  -0.00000   0.00000  -0.00051   0.00000  -0.00036   0.00000  -0.00000   0.00000  -0.38216   0.00000  -0.00000   0.00000  -0.00000   0.00000  -0.00055   0.00000   0.00000   0.00000   0.00104   0.00000  -0.00000   0.00000   0.00000   0.00000   0.00000   0.00000  -0.00000   0.00000  -0.06918   0.00000  -0.86479   0.00000  -0.00821   0.00000  -0.00000   0.00000  -0.45489   0.00000  -0.00000   0.00000  -0.00208   0.00000  -0.00000   0.00000   0.00005   0.00000  -0.00000   0.00000   0.00000   0.00000   0.00094   0.00000   0.00000   0.00000  -0.00255   0.00000  -0.00037   0.00000  -0.00000   0.00000  -0.39599   0.00000  -0.00000   0.00000  -0.00000   0.00000  -0.00262   0.00000  -0.00000   0.00000   0.00095   0.00000  -0.00000   0.00000  -0.00000   0.00000   0.00000   0.00000  -0.00000
-24.13016   0.00000  -0.06603   0.00000  -0.82542   0.00000  -0.00147   0.00000  -0.00001   0.00000  -0.44067   0.00000  -0.00001   0.00000  -0.00177   0.00000  -0.00000   0.00000   0.00004   0.00000   0.00000   0.00000  -0.00000   0.00000   0.00101   0.00000  -0.00000   0.00000  -0.00051   0.00000  -0.00036   0.00000  -0.00000   0.00000  -0.38216   0.00000  -0.00000   0.00000  -0.00000   0.00000  -0.00055   0.00000   0.00000   0.00000   0.00104   0.00000  -0.00000   0.00000   0.00000   0.00000   0.00000   0.00000  -0.00000   0.00000  -0.06918   0.00000  -0.86479   0.00000  -0.00821   0.00000  -0.00000   0.00000  -0.45489   0.00000  -0.00000   0.00000  -0.00208   0.00000  -0.00000   0.00000   0.00005   0.00000  -0.00000   0.00000   0.00000   0.00000   0.00094   0.00000   0.00000   0.00000  -0.00255   0.00000  -0.00037   0.00000  -0.00000   0.00000  -0.39599   0.00000  -0.00000   0.00000  -0.00000   0.00000  -0.00262   0.00000  -0.00000   0.00000   0.00095   0.00000  -0.00000   0.00000  -0.00000   0.00000   0.00000   0.00000  -0.00000
-24.08010   0.00000  -0.06603   0.00000  -0.82542   0.00000  -0.00147   0.00000  -0.00001   0.00000  -0.44067   0.00000  -0.00001   0.00000  -0.00177   0.00000  -0.00000   0.00000   0.00004   0.00000   0.00000   0.00000  -0.00000   0.00000   0.00101   0.00000  -0.00000   0.00000  -0.00051   0.00000  -0.00036   0.00000  -0.00000   0.00000  -0.38216   0.00000  -0.00000   0.00000  -0.00000   0.00000  -0.00055   0.00000   0.00000   0.00000   0.00104   0.00000  -0.00000   0.00000   0.00000   0.00000   0.00000   0.00000  -0.00000   0.00000  -0.06918   0.00000  -0.86479   0.00000  -0.00821   0.00000  -0.00000   0.00000  -0.45489   0.00000  -0.00000   0.00000  -0.00208   0.00000  -0.00000   0.00000   0.00005   0.00000  -0.00000   0.00000   0.00000   0.00000   0.00094   0.00000   0.00000   0.00000  -0.00255   0.00000  -0.00037   0.00000  -0.00000   0.00000  -0.39599   0.00000  -0.00000   0.00000  -0.00000   0.00000  -0.00262   0.00000  -0.00000   0.00000   0.00095   0.00000  -0.00000   0.00000  -0.00000   0.00000   0.00000   0.00000  -0.00000
-24.03004   0.00000  -0.06603   0.00000  -0.82542   0.00000  -0.00147   0.00000  -0.00001   0.00000  -0.44067   0.00000  -0.00001   0.00000  -0.00177   0.00000  -0.00000   0.00000   0.00004   0.00000   0.00000   0.00000  -0.00000   0.00000   0.00101   0.00000  -0.00000   0.00000  -0.00051   0.00000  -0.00036   0.00000  -0.00000   0.00000  -0.38216   0.00000  -0.00000   0.00000  -0.00000   0.00000  -0.00055   0.00000   0.00000   0.00000   0.00104   0.00000  -0.00000   0.00000   0.00000   0.00000   0.00000   0.00000  -0.00000   0.00000  -0.06918   0.00000  -0.86479   0.00000  -0.00821   0.00000  -0.00000   0.00000  -0.45489   0.00000  -0.00000   0.00000  -0.00208   0.00000  -0.00000   0.00000   0.00005   0.00000  -0.00000   0.00000   0.00000   0.00000   0.00094   0.00000   0.00000   0.00000  -0.00255   0.00000  -0.00037   0.00000  -0.00000   0.00000  -0.39599   0.00000  -0.00000   0.00000  -0.00000   0.00000  -0.00262   0.00000  -0.00000   0.00000   0.00095   0.00000  -0.00000   0.00000  -0.00000   0.00000   0.00000   0.00000  -0.00000
-23.97997   0.00000  -0.06603   0.00000  -0.82542   0.00000  -0.00147   0.00000  -0.00001   0.00000  -0.44067   0.00000  -0.00001   0.00000  -0.00177   0.00000  -0.00000   0.00000   0.00004   0.00000   0.00000   0.00000  -0.00000   0.00000   0.00101   0.00000  -0.00000   0.00000  -0.00051   0.00000  -0.00036   0.00000  -0.00000   0.00000  -0.38216   0.00000  -0.00000   0.00000  -0.00000   0.00000  -0.00055   0.00000   0.00000   0.00000   0.00104   0.00000  -0.00000   0.00000   0.00000   0.00000   0.00000   0.00000  -0.00000   0.00000  -0.06918   0.00000  -0.86479   0.00000  -0.00821   0.00000  -0.00000   0.00000  -0.45489   0.00000  -0.00000   0.00000  -0.00208   0.00000  -0.00000   0.00000   0.00005   0.00000  -0.00000   0.00000   0.00000   0.00000   0.00094   0.00000   0.00000   0.00000  -0.00255   0.00000  -0.00037   0.00000  -0.00000   0.00000  -0.39599   0.00000  -0.00000   0.00000  -0.00000   0.00000  -0.00262   0.00000  -0.00000   0.00000   0.00095   0.00000  -0.00000   0.00000  -0.00000   0.00000   0.00000   0.00000  -0.00000
-23.92991   0.00000  -0.06603   0.00000  -0.82542   0.00000  -0.00147   0.00000  -0.00001   0.00000  -0.44067   0.00000  -0.00001   0.00000  -0.00177   0.00000  -0.00000   0.00000   0.00004   0.00000   0.00000   0.00000  -0.00000   0.00000   0.00101   0.00000  -0.00000   0.00000  -0.00051   0.00000  -0.00036   0.00000  -0.00000   0.00000  -0.38216   0.00000  -0.00000   0.00000  -0.00000   0.00000  -0.00055   0.00000   0.00000   0.00000   0.00104   0.00000  -0.00000   0.00000   0.00000   0.00000   0.00000   0.00000  -0.00000   0.00000  -0.06918   0.00000  -0.86479   0.00000  -0.00821   0.00000  -0.00000   0.00000  -0.45489   0.00000  -0.00000   0.00000  -0.00208   0.00000  -0.00000   0.00000   0.00005   0.00000  -0.00000   0.00000   0.00000   0.00000   0.00094   0.00000   0.00000   0.00000  -0.00255   0.00000  -0.00037   0.00000  -0.00000   0.00000  -0.39599   0.00000  -0.00000   0.00000  -0.00000   0.00000  -0.00262   0.00000  -0.00000   0.00000   0.00095   0.00000  -0.00000   0.00000  -0.00000   0.00000   0.00000   0.00000  -0.00000
-23.87985   0.00000  -0.06603   0.00000  -0.82542   0.00000  -0.00147   0.00000  -0.00001   0.00000  -0.44067   0.00000  -0.00001   0.00000  -0.00177   0.00000  -0.00000   0.00000   0.00004   0.00000   0.00000   0.00000  -0.00000   0.00000   0.00101   0.00000  -0.00000   0.00000  -0.00051   0.00000  -0.00036   0.00000  -0.00000   0.00000  -0.38216   0.00000  -0.00000   0.00000  -0.00000   0.00000  -0.00055   0.00000   0.00000   0.00000   0.00104   0.00000  -0.00000   0.00000   0.00000   0.00000   0.00000   0.00000  -0.00000   0.00000  -0.06918   0.00000  -0.86479   0.00000  -0.00821   0.00000  -0.00000   0.00000  -0.45489   0.00000  -0.00000   0.00000  -0.00208   0.00000  -0.00000   0.00000   0.00005   0.00000  -0.00000   0.00000   0.00000   0.00000   0.00094   0.00000   0.00000   0.00000  -0.00255   0.00000  -0.00037   0.00000  -0.00000   0.00000  -0.39599   0.00000  -0.00000   0.00000  -0.00000   0.00000  -0.00262   0.00000  -0.00000   0.00000   0.00095   0.00000  -0.00000   0.00000  -0.00000   0.00000   0.00000   0.00000  -0.00000
-23.82979   0.00000  -0.06603   0.00000  -0.82542   0.00000  -0.00147   0.00000  -0.00001   0.00000  -0.44067   0.00000  -0.00001   0.00000  -0.00177   0.00000  -0.00000   0.00000   0.00004   0.00000   0.00000   0.00000  -0.00000   0.00000   0.00101   0.00000  -0.00000   0.00000  -0.00051   0.00000  -0.00036   0.00000  -0.00000   0.00000  -0.38216   0.00000  -0.00000   0.00000  -0.00000   0.00000  -0.00055   0.00000   0.00000   0.00000   0.00104   0.00000  -0.00000   0.00000   0.00000   0.00000   0.00000   0.00000  -0.00000   0.00000  -0.06918   0.00000  -0.86479   0.00000  -0.00821   0.00000  -0.00000   0.00000  -0.45489   0.00000  -0.00000   0.00000  -0.00208   0.00000  -0.00000   0.00000   0.00005   0.00000  -0.00000   0.00000   0.00000   0.00000   0.00094   0.00000   0.00000   0.00000  -0.00255   0.00000  -0.00037   0.00000  -0.00000   0.00000  -0.39599   0.00000  -0.00000   0.00000  -0.00000   0.00000  -0.00262   0.00000  -0.00000   0.00000   0.00095   0.00000  -0.00000   0.00000  -0.00000   0.00000   0.00000   0.00000  -0.00000
-23.77972   0.00000  -0.06603   0.00000  -0.82542   0.00000  -0.00147   0.00000  -0.00001   0.00000  -0.44067   0.00000  -0.00001   0.00000  -0.00177   0.00000  -0.00000   0.00000   0.00004   0.00000   0.00000   0.00000  -0.00000   0.00000   0.00101   0.00000  -0.00000   0.00000  -0.00051   0.00000  -0.00036   0.00000  -0.00000   0.00000  -0.38216   0.00000  -0.00000   0.00000  -0.00000   0.00000  -0.00055   0.00000   0.00000   0.00000   0.00104   0.00000  -0.00000   0.00000   0.00000   0.00000   0.00000   0.00000  -0.00000   0.00000  -0.06918   0.00000  -0.86479   0.00000  -0.00821   0.00000  -0.00000   0.00000  -0.45489   0.00000  -0.00000   0.00000  -0.00208   0.00000  -0.00000   0.00000   0.00005   0.00000  -0.00000   0.00000   0.00000   0.00000   0.00094   0.00000   0.00000   0.00000  -0.00255   0.00000  -0.00037   0.00000  -0.00000   0.00000  -0.39599   0.00000  -0.00000   0.00000  -0.00000   0.00000  -0.00262   0.00000  -0.00000   0.00000   0.00095   0.00000  -0.00000   0.00000  -0.00000   0.00000   0.00000   0.00000  -0.00000
-23.72966   0.00000  -0.06603   0.00000  -0.82542   0.00000  -0.00147   0.00000  -0.00001   0.00000  -0.44067   0.00000  -0.00001   0.00000  -0.00177   0.00000  -0.00000   0.00000   0.00004   0.00000   0.00000   0.00000  -0.00000   0.00000   0.00101   0.00000  -0.00000   0.00000  -0.00051   0.00000  -0.00036   0.00000  -0.00000   0.00000  -0.38216   0.00000  -0.00000   0.00000  -0.00000   0.00000  -0.00055   0.00000   0.00000   0.00000   0.00104   0.00000  -0.00000   0.00000   0.00000   0.00000   0.00000   0.00000  -0.00000   0.00000  -0.06918   0.00000  -0.86479   0.00000  -0.00821   0.00000  -0.00000   0.00000  -0.45489   0.00000  -0.00000   0.00000  -0.00208   0.00000  -0.00000   0.00000   0.00005   0.00000  -0.00000   0.00000   0.00000   0.00000   0.00094   0.00000   0.00000   0.00000  -0.00255   0.00000  -0.00037   0.00000  -0.00000   0.00000  -0.39599   0.00000  -0.00000   0.00000  -0.00000   0.00000  -0.00262   0.00000  -0.00000   0.00000   0.00095   0.00000  -0.00000   0.00000  -0.00000   0.00000   0.00000   0.00000  -0.00000