ESCALE ; pCOHP file generated by LOBSTER. Energy is shifted such that the Fermi level lies at 0 eV.
       115          2        701  -2.61905e+01   8.85955e+00  -1.15476e+00 
Average
No.1:Zr19->O13(2.131198695811273)
No.1:Zr19[5s]->O13[2s](2.131198695811273)
No.1:Zr19[5s]->O13[2p_y](2.131198695811273)
No.1:Zr19[5s]->O13[2p_z](2.131198695811273)
No.1:Zr19[5s]->O13[2p_x](2.131198695811273)
No.1:Zr19[4p_y]->O13[2s](2.131198695811273)
No.1:Zr19[4p_y]->O13[2p_y](2.131198695811273)
No.1:Zr19[4p_y]->O13[2p_z](2.131198695811273)
No.1:Zr19[4p_y]->O13[2p_x](2.131198695811273)
No.1:Zr19[4p_z]->O13[2s](2.131198695811273)
No.1:Zr19[4p_z]->O13[2p_y](2.131198695811273)
No.1:Zr19[4p_z]->O13[2p_z](2.131198695811273)
No.1:Zr19[4p_z]->O13[2p_x](2.131198695811273)
No.1:Zr19[4p_x]->O13[2s](2.131198695811273)
No.1:Zr19[4p_x]->O13[2p_y](2.131198695811273)
No.1:Zr19[4p_x]->O13[2p_z](2.131198695811273)
No.1:Zr19[4p_x]->O13[2p_x](2.131198695811273)
No.1:Zr19[3d_xy]->O13[2s](2.131198695811273)
No.1:Zr19[3d_xy]->O13[2p_y](2.131198695811273)
No.1:Zr19[3d_xy]->O13[2p_z](2.131198695811273)
No.1:Zr19[3d_xy]->O13[2p_x](2.131198695811273)
No.1:Zr19[3d_yz]->O13[2s](2.131198695811273)
No.1:Zr19[3d_yz]->O13[2p_y](2.131198695811273)
No.1:Zr19[3d_yz]->O13[2p_z](2.131198695811273)
No.1:Zr19[3d_yz]->O13[2p_x](2.131198695811273)
No.1:Zr19[3d_z^2]->O13[2s](2.131198695811273)
No.1:Zr19[3d_z^2]->O13[2p_y](2.131198695811273)
No.1:Zr19[3d_z^2]->O13[2p_z](2.131198695811273)
No.1:Zr19[3d_z^2]->O13[2p_x](2.131198695811273)
No.1:Zr19[3d_xz]->O13[2s](2.131198695811273)
No.1:Zr19[3d_xz]->O13[2p_y](2.131198695811273)
No.1:Zr19[3d_xz]->O13[2p_z](2.131198695811273)
No.1:Zr19[3d_xz]->O13[2p_x](2.131198695811273)
No.1:Zr19[3d_x^2-y^2]->O13[2s](2.131198695811273)
No.1:Zr19[3d_x^2-y^2]->O13[2p_y](2.131198695811273)
No.1:Zr19[3d_x^2-y^2]->O13[2p_z](2.131198695811273)
No.1:Zr19[3d_x^2-y^2]->O13[2p_x](2.131198695811273)
No.1:Zr19[4d_xy]->O13[2s](2.131198695811273)
No.1:Zr19[4d_xy]->O13[2p_y](2.131198695811273)
No.1:Zr19[4d_xy]->O13[2p_z](2.131198695811273)
No.1:Zr19[4d_xy]->O13[2p_x](2.131198695811273)
No.1:Zr19[4d_yz]->O13[2s](2.131198695811273)
No.1:Zr19[4d_yz]->O13[2p_y](2.131198695811273)
No.1:Zr19[4d_yz]->O13[2p_z](2.131198695811273)
No.1:Zr19[4d_yz]->O13[2p_x](2.131198695811273)
No.1:Zr19[4d_z^2]->O13[2s](2.131198695811273)
No.1:Zr19[4d_z^2]->O13[2p_y](2.131198695811273)
No.1:Zr19[4d_z^2]->O13[2p_z](2.131198695811273)
No.1:Zr19[4d_z^2]->O13[2p_x](2.131198695811273)
No.1:Zr19[4d_xz]->O13[2s](2.131198695811273)
No.1:Zr19[4d_xz]->O13[2p_y](2.131198695811273)
No.1:Zr19[4d_xz]->O13[2p_z](2.131198695811273)
No.1:Zr19[4d_xz]->O13[2p_x](2.131198695811273)
No.1:Zr19[4d_x^2-y^2]->O13[2s](2.131198695811273)
No.1:Zr19[4d_x^2-y^2]->O13[2p_y](2.131198695811273)
No.1:Zr19[4d_x^2-y^2]->O13[2p_z](2.131198695811273)
No.1:Zr19[4d_x^2-y^2]->O13[2p_x](2.131198695811273)
No.2:Zr19->O11(2.1539675691442626)
No.2:Zr19[5s]->O11[2s](2.1539675691442626)
No.2:Zr19[5s]->O11[2p_y](2.1539675691442626)
No.2:Zr19[5s]->O11[2p_z](2.1539675691442626)
No.2:Zr19[5s]->O11[2p_x](2.1539675691442626)
No.2:Zr19[4p_y]->O11[2s](2.1539675691442626)
No.2:Zr19[4p_y]->O11[2p_y](2.1539675691442626)
No.2:Zr19[4p_y]->O11[2p_z](2.1539675691442626)
No.2:Zr19[4p_y]->O11[2p_x](2.1539675691442626)
No.2:Zr19[4p_z]->O11[2s](2.1539675691442626)
No.2:Zr19[4p_z]->O11[2p_y](2.1539675691442626)
No.2:Zr19[4p_z]->O11[2p_z](2.1539675691442626)
No.2:Zr19[4p_z]->O11[2p_x](2.1539675691442626)
No.2:Zr19[4p_x]->O11[2s](2.1539675691442626)
No.2:Zr19[4p_x]->O11[2p_y](2.1539675691442626)
No.2:Zr19[4p_x]->O11[2p_z](2.1539675691442626)
No.2:Zr19[4p_x]->O11[2p_x](2.1539675691442626)
No.2:Zr19[3d_xy]->O11[2s](2.1539675691442626)
No.2:Zr19[3d_xy]->O11[2p_y](2.1539675691442626)
No.2:Zr19[3d_xy]->O11[2p_z](2.1539675691442626)
No.2:Zr19[3d_xy]->O11[2p_x](2.1539675691442626)
No.2:Zr19[3d_yz]->O11[2s](2.1539675691442626)
No.2:Zr19[3d_yz]->O11[2p_y](2.1539675691442626)
No.2:Zr19[3d_yz]->O11[2p_z](2.1539675691442626)
No.2:Zr19[3d_yz]->O11[2p_x](2.1539675691442626)
No.2:Zr19[3d_z^2]->O11[2s](2.1539675691442626)
No.2:Zr19[3d_z^2]->O11[2p_y](2.1539675691442626)
No.2:Zr19[3d_z^2]->O11[2p_z](2.1539675691442626)
No.2:Zr19[3d_z^2]->O11[2p_x](2.1539675691442626)
No.2:Zr19[3d_xz]->O11[2s](2.1539675691442626)
No.2:Zr19[3d_xz]->O11[2p_y](2.1539675691442626)
No.2:Zr19[3d_xz]->O11[2p_z](2.1539675691442626)
No.2:Zr19[3d_xz]->O11[2p_x](2.1539675691442626)
No.2:Zr19[3d_x^2-y^2]->O11[2s](2.1539675691442626)
No.2:Zr19[3d_x^2-y^2]->O11[2p_y](2.1539675691442626)
No.2:Zr19[3d_x^2-y^2]->O11[2p_z](2.1539675691442626)
No.2:Zr19[3d_x^2-y^2]->O11[2p_x](2.1539675691442626)
No.2:Zr19[4d_xy]->O11[2s](2.1539675691442626)
No.2:Zr19[4d_xy]->O11[2p_y](2.1539675691442626)
No.2:Zr19[4d_xy]->O11[2p_z](2.1539675691442626)
No.2:Zr19[4d_xy]->O11[2p_x](2.1539675691442626)
No.2:Zr19[4d_yz]->O11[2s](2.1539675691442626)
No.2:Zr19[4d_yz]->O11[2p_y](2.1539675691442626)
No.2:Zr19[4d_yz]->O11[2p_z](2.1539675691442626)
No.2:Zr19[4d_yz]->O11[2p_x](2.1539675691442626)
No.2:Zr19[4d_z^2]->O11[2s](2.1539675691442626)
No.2:Zr19[4d_z^2]->O11[2p_y](2.1539675691442626)
No.2:Zr19[4d_z^2]->O11[2p_z](2.1539675691442626)
No.2:Zr19[4d_z^2]->O11[2p_x](2.1539675691442626)
No.2:Zr19[4d_xz]->O11[2s](2.1539675691442626)
No.2:Zr19[4d_xz]->O11[2p_y](2.1539675691442626)
No.2:Zr19[4d_xz]->O11[2p_z](2.1539675691442626)
No.2:Zr19[4d_xz]->O11[2p_x](2.1539675691442626)
No.2:Zr19[4d_x^2-y^2]->O11[2s](2.1539675691442626)
No.2:Zr19[4d_x^2-y^2]->O11[2p_y](2.1539675691442626)
No.2:Zr19[4d_x^2-y^2]->O11[2p_z](2.1539675691442626)
No.2:Zr19[4d_x^2-y^2]->O11[2p_x](2.1539675691442626)
-25.03577   0.00000  -0.01229   0.00000  -0.26876   0.00000   0.04384   0.00000   0.00044   0.00000   0.00186   0.00000   0.00044   0.00000  -0.04687   0.00000  -0.00924   0.00000  -0.02391   0.00000  -0.03205   0.00000  -0.02620   0.00000  -0.01923   0.00000  -0.00081   0.00000  -0.01924   0.00000  -0.04687   0.00000  -0.03204   0.00000  -0.02390   0.00000  -0.00924   0.00000  -0.00334   0.00000  -0.00048   0.00000  -0.00052   0.00000  -0.00050   0.00000  -0.00006   0.00000  -0.00028   0.00000  -0.00009   0.00000  -0.00012   0.00000  -0.00103   0.00000  -0.00053   0.00000  -0.00100   0.00000  -0.00053   0.00000  -0.00023   0.00000  -0.00083   0.00000  -0.00054   0.00000  -0.00096   0.00000  -0.00000   0.00000  -0.00000   0.00000  -0.00000   0.00000   0.00000   0.00000  -0.00829   0.00000  -0.00247   0.00000  -0.00325   0.00000  -0.00248   0.00000  -0.00088   0.00000   0.00023   0.00000   0.00006   0.00000   0.00008   0.00000   0.00110   0.00000  -0.00037   0.00000   0.00190   0.00000  -0.00037   0.00000  -0.00066   0.00000   0.00038   0.00000   0.00010   0.00000   0.00037   0.00000  -0.00000   0.00000  -0.00006   0.00000  -0.00000   0.00000  -0.00009   0.00000  -0.43174   0.00000  -0.01134   0.00000  -0.00631   0.00000   0.00313   0.00000  -0.00924   0.00000  -0.03000   0.00000  -0.00671   0.00000  -0.03046   0.00000  -0.01695   0.00000  -0.03799   0.00000  -0.03562   0.00000  -0.01219   0.00000  -0.02329   0.00000  -0.01745   0.00000  -0.01583   0.00000  -0.01733   0.00000  -0.00031   0.00000   0.00012   0.00000  -0.03222   0.00000  -0.00055   0.00000  -0.03818   0.00000  -0.00042   0.00000   0.00024   0.00000  -0.01656   0.00000  -0.00030   0.00000  -0.00090   0.00000  -0.00362   0.00000  -0.00528   0.00000  -0.00260   0.00000  -0.00001   0.00000   0.00003   0.00000  -0.03144   0.00000   0.00024   0.00000  -0.00090   0.00000  -0.00194   0.00000  -0.00169   0.00000  -0.00170   0.00000  -0.00668   0.00000   0.00116   0.00000  -0.00040   0.00000  -0.00384   0.00000  -0.00877   0.00000  -0.00142   0.00000   0.00428   0.00000  -0.00148   0.00000  -0.00089   0.00000  -0.00360   0.00000  -0.00355   0.00000  -0.00282   0.00000  -0.00312   0.00000   0.00189   0.00000   0.00353   0.00000   0.00011   0.00000  -0.00062   0.00000  -0.00059   0.00000  -0.00025   0.00000   0.00090   0.00000  -0.01174   0.00000  -0.23839   0.00000   0.04478   0.00000  -0.00025   0.00000   0.00216   0.00000  -0.00025   0.00000  -0.03902   0.00000  -0.00872   0.00000  -0.02404   0.00000  -0.03031   0.00000  -0.02067   0.00000  -0.01794   0.00000  -0.00081   0.00000  -0.01795   0.00000  -0.03902   0.00000  -0.03030   0.00000  -0.02403   0.00000  -0.00872   0.00000  -0.00428   0.00000   0.00023   0.00000  -0.00076   0.00000   0.00021   0.00000  -0.00012   0.00000  -0.00045   0.00000  -0.00014   0.00000  -0.00023   0.00000  -0.00071   0.00000  -0.00075   0.00000  -0.00046   0.00000  -0.00076   0.00000  -0.00027   0.00000  -0.00089   0.00000  -0.00060   0.00000  -0.00122   0.00000  -0.00001   0.00000   0.00002   0.00000  -0.00000   0.00000  -0.00003   0.00000  -0.00848   0.00000  -0.00253   0.00000  -0.00306   0.00000  -0.00255   0.00000   0.00014   0.00000   0.00031   0.00000   0.00007   0.00000   0.00037   0.00000   0.00112   0.00000  -0.00041   0.00000   0.00198   0.00000  -0.00041   0.00000   0.00033   0.00000   0.00064   0.00000   0.00010   0.00000   0.00042   0.00000  -0.00000   0.00000  -0.00003   0.00000  -0.00000   0.00000  -0.00010   0.00000  -0.43094   0.00000  -0.01161   0.00000  -0.00663   0.00000   0.00317   0.00000  -0.00939   0.00000  -0.03001   0.00000  -0.00668   0.00000  -0.03070   0.00000  -0.01700   0.00000  -0.03790   0.00000  -0.03592   0.00000  -0.01225   0.00000  -0.02342   0.00000  -0.01754   0.00000  -0.01597   0.00000  -0.01749   0.00000  -0.00031   0.00000   0.00015   0.00000  -0.03147   0.00000  -0.00047   0.00000  -0.03780   0.00000  -0.00046   0.00000   0.00029   0.00000  -0.01570   0.00000  -0.00026   0.00000  -0.00081   0.00000  -0.00342   0.00000  -0.00560   0.00000  -0.00234   0.00000  -0.00002   0.00000   0.00002   0.00000  -0.03045   0.00000   0.00021   0.00000  -0.00095   0.00000  -0.00197   0.00000  -0.00197   0.00000  -0.00169   0.00000  -0.00662   0.00000   0.00115   0.00000  -0.00040   0.00000  -0.00385   0.00000  -0.00890   0.00000  -0.00142   0.00000   0.00418   0.00000  -0.00148   0.00000  -0.00086   0.00000  -0.00352   0.00000  -0.00361   0.00000  -0.00275   0.00000  -0.00336   0.00000   0.00184   0.00000   0.00350   0.00000   0.00011   0.00000  -0.00063   0.00000  -0.00059   0.00000  -0.00028   0.00000   0.00091
-24.98569  -0.00000  -0.01229  -0.00000  -0.26876   0.00000   0.04384   0.00000   0.00044   0.00000   0.00186   0.00000   0.00044  -0.00000  -0.04687   0.00000  -0.00924  -0.00000  -0.02391  -0.00000  -0.03205  -0.00000  -0.02620  -0.00000  -0.01923  -0.00000  -0.00081  -0.00000  -0.01924  -0.00000  -0.04687  -0.00000  -0.03204  -0.00000  -0.02390   0.00000  -0.00924   0.00000  -0.00334   0.00000  -0.00048   0.00000  -0.00052   0.00000  -0.00050  -0.00000  -0.00006   0.00000  -0.00028  -0.00000  -0.00009  -0.00000  -0.00012   0.00000  -0.00103   0.00000  -0.00053   0.00000  -0.00100   0.00000  -0.00053  -0.00000  -0.00023  -0.00000  -0.00083  -0.00000  -0.00054   0.00000  -0.00096   0.00000  -0.00000  -0.00000  -0.00000   0.00000  -0.00000  -0.00000   0.00000  -0.00000  -0.00829  -0.00000  -0.00247  -0.00000  -0.00325  -0.00000  -0.00248  -0.00000  -0.00088   0.00000   0.00023  -0.00000   0.00006  -0.00000   0.00008   0.00000   0.00110  -0.00000  -0.00037   0.00000   0.00190  -0.00000  -0.00037  -0.00000  -0.00066  -0.00000   0.00038  -0.00000   0.00010   0.00000   0.00037  -0.00000  -0.00000  -0.00000  -0.00006  -0.00000  -0.00000  -0.00000  -0.00009  -0.00000  -0.43174  -0.00000  -0.01134  -0.00000  -0.00631  -0.00000   0.00313  -0.00000  -0.00924  -0.00000  -0.03000  -0.00000  -0.00671  -0.00000  -0.03046  -0.00000  -0.01695  -0.00000  -0.03799   0.00000  -0.03562  -0.00000  -0.01219   0.00000  -0.02329  -0.00000  -0.01745  -0.00000  -0.01583  -0.00000  -0.01733  -0.00000  -0.00031  -0.00000   0.00012   0.00000  -0.03222  -0.00000  -0.00055   0.00000  -0.03818   0.00000  -0.00042   0.00000   0.00024  -0.00000  -0.01656  -0.00000  -0.00030  -0.00000  -0.00090   0.00000  -0.00362   0.00000  -0.00528   0.00000  -0.00260  -0.00000  -0.00001   0.00000   0.00003   0.00000  -0.03144   0.00000   0.00024   0.00000  -0.00090  -0.00000  -0.00194   0.00000  -0.00169  -0.00000  -0.00170  -0.00000  -0.00668   0.00000   0.00116  -0.00000  -0.00040  -0.00000  -0.00384  -0.00000  -0.00877   0.00000  -0.00142  -0.00000   0.00428   0.00000  -0.00148   0.00000  -0.00089  -0.00000  -0.00360  -0.00000  -0.00355  -0.00000  -0.00282   0.00000  -0.00312   0.00000   0.00189   0.00000   0.00353   0.00000   0.00011  -0.00000  -0.00062   0.00000  -0.00059  -0.00000  -0.00025  -0.00000   0.00090  -0.00000  -0.01174  -0.00000  -0.23839   0.00000   0.04478  -0.00000  -0.00025   0.00000   0.00216  -0.00000  -0.00025  -0.00000  -0.03902   0.00000  -0.00872  -0.00000  -0.02404  -0.00000  -0.03031  -0.00000  -0.02067  -0.00000  -0.01794  -0.00000  -0.00081  -0.00000  -0.01795  -0.00000  -0.03902  -0.00000  -0.03030  -0.00000  -0.02403   0.00000  -0.00872   0.00000  -0.00428  -0.00000   0.00023   0.00000  -0.00076  -0.00000   0.00021  -0.00000  -0.00012   0.00000  -0.00045  -0.00000  -0.00014  -0.00000  -0.00023   0.00000  -0.00071   0.00000  -0.00075   0.00000  -0.00046   0.00000  -0.00076  -0.00000  -0.00027  -0.00000  -0.00089  -0.00000  -0.00060   0.00000  -0.00122   0.00000  -0.00001   0.00000   0.00002   0.00000  -0.00000   0.00000  -0.00003  -0.00000  -0.00848  -0.00000  -0.00253  -0.00000  -0.00306  -0.00000  -0.00255  -0.00000   0.00014   0.00000   0.00031  -0.00000   0.00007  -0.00000   0.00037   0.00000   0.00112  -0.00000  -0.00041   0.00000   0.00198  -0.00000  -0.00041  -0.00000   0.00033  -0.00000   0.00064  -0.00000   0.00010   0.00000   0.00042  -0.00000  -0.00000  -0.00000  -0.00003  -0.00000  -0.00000  -0.00000  -0.00010  -0.00000  -0.43094  -0.00000  -0.01161  -0.00000  -0.00663  -0.00000   0.00317  -0.00000  -0.00939  -0.00000  -0.03001  -0.00000  -0.00668  -0.00000  -0.03070  -0.00000  -0.01700  -0.00000  -0.03790   0.00000  -0.03592  -0.00000  -0.01225   0.00000  -0.02342  -0.00000  -0.01754  -0.00000  -0.01597  -0.00000  -0.01749  -0.00000  -0.00031  -0.00000   0.00015   0.00000  -0.03147  -0.00000  -0.00047   0.00000  -0.03780   0.00000  -0.00046   0.00000   0.00029  -0.00000  -0.01570  -0.00000  -0.00026  -0.00000  -0.00081   0.00000  -0.00342   0.00000  -0.00560   0.00000  -0.00234  -0.00000  -0.00002   0.00000   0.00002   0.00000  -0.03045   0.00000   0.00021   0.00000  -0.00095  -0.00000  -0.00197   0.00000  -0.00197  -0.00000  -0.00169  -0.00000  -0.00662   0.00000   0.00115  -0.00000  -0.00040  -0.00000  -0.00385  -0.00000  -0.00890   0.00000  -0.00142  -0.00000   0.00418   0.00000  -0.00148   0.00000  -0.00086  -0.00000  -0.00352  -0.00000  -0.00361  -0.00000  -0.00275   0.00000  -0.00336   0.00000   0.00184   0.00000   0.00350   0.00000   0.00011  -0.00000  -0.00063   0.00000  -0.00059  -0.00000  -0.00028  -0.00000   0.00091
-24.93562  -0.00000  -0.01229  -0.00000  -0.26876   0.00000   0.04384   0.00000   0.00044   0.00000   0.00186   0.00000   0.00044  -0.00000  -0.04687   0.00000  -0.00924  -0.00000  -0.02391  -0.00000  -0.03205  -0.00000  -0.02620  -0.00000  -0.01923  -0.00000  -0.00081  -0.00000  -0.01924  -0.00000  -0.04687  -0.00000  -0.03204  -0.00000  -0.02390   0.00000  -0.00924   0.00000  -0.00334   0.00000  -0.00048   0.00000  -0.00052   0.00000  -0.00050  -0.00000  -0.00006   0.00000  -0.00028  -0.00000  -0.00009  -0.00000  -0.00012   0.00000  -0.00103   0.00000  -0.00053   0.00000  -0.00100   0.00000  -0.00053  -0.00000  -0.00023  -0.00000  -0.00083  -0.00000  -0.00054   0.00000  -0.00096   0.00000  -0.00000  -0.00000  -0.00000   0.00000  -0.00000  -0.00000   0.00000  -0.00000  -0.00829  -0.00000  -0.00247  -0.00000  -0.00325  -0.00000  -0.00248  -0.00000  -0.00088   0.00000   0.00023  -0.00000   0.00006  -0.00000   0.00008   0.00000   0.00110  -0.00000  -0.00037   0.00000   0.00190  -0.00000  -0.00037  -0.00000  -0.00066  -0.00000   0.00038  -0.00000   0.00010   0.00000   0.00037  -0.00000  -0.00000  -0.00000  -0.00006  -0.00000  -0.00000  -0.00000  -0.00009  -0.00000  -0.43174  -0.00000  -0.01134  -0.00000  -0.00631  -0.00000   0.00313  -0.00000  -0.00924  -0.00000  -0.03000  -0.00000  -0.00671  -0.00000  -0.03046  -0.00000  -0.01695  -0.00000  -0.03799   0.00000  -0.03562  -0.00000  -0.01219   0.00000  -0.02329  -0.00000  -0.01745  -0.00000  -0.01583  -0.00000  -0.01733  -0.00000  -0.00031  -0.00000   0.00012   0.00000  -0.03222  -0.00000  -0.00055   0.00000  -0.03818   0.00000  -0.00042   0.00000   0.00024  -0.00000  -0.01656  -0.00000  -0.00030  -0.00000  -0.00090   0.00000  -0.00362   0.00000  -0.00528   0.00000  -0.00260  -0.00000  -0.00001   0.00000   0.00003   0.00000  -0.03144   0.00000   0.00024   0.00000  -0.00090  -0.00000  -0.00194   0.00000  -0.00169  -0.00000  -0.00170  -0.00000  -0.00668   0.00000   0.00116  -0.00000  -0.00040  -0.00000  -0.00384  -0.00000  -0.00877   0.00000  -0.00142  -0.00000   0.00428   0.00000  -0.00148   0.00000  -0.00089  -0.00000  -0.00360  -0.00000  -0.00355  -0.00000  -0.00282   0.00000  -0.00312   0.00000   0.00189   0.00000   0.00353   0.00000   0.00011  -0.00000  -0.00062   0.00000  -0.00059  -0.00000  -0.00025  -0.00000   0.00090  -0.00000  -0.01174  -0.00000  -0.23839   0.00000   0.04478  -0.00000  -0.00025   0.00000   0.00216  -0.00000  -0.00025  -0.00000  -0.03902   0.00000  -0.00872  -0.00000  -0.02404  -0.00000  -0.03031  -0.00000  -0.02067  -0.00000  -0.01794  -0.00000  -0.00081  -0.00000  -0.01795  -0.00000  -0.03902  -0.00000  -0.03030  -0.00000  -0.02403   0.00000  -0.00872   0.00000  -0.00428  -0.00000   0.00023   0.00000  -0.00076  -0.00000   0.00021  -0.00000  -0.00012   0.00000  -0.00045  -0.00000  -0.00014  -0.00000  -0.00023   0.00000  -0.00071   0.00000  -0.00075   0.00000  -0.00046   0.00000  -0.00076  -0.00000  -0.00027  -0.00000  -0.00089  -0.00000  -0.00060   0.00000  -0.00122   0.00000  -0.00001   0.00000   0.00002   0.00000  -0.00000   0.00000  -0.00003  -0.00000  -0.00848  -0.00000  -0.00253  -0.00000  -0.00306  -0.00000  -0.00255  -0.00000   0.00014   0.00000   0.00031  -0.00000   0.00007  -0.00000   0.00037   0.00000   0.00112  -0.00000  -0.00041   0.00000   0.00198  -0.00000  -0.00041  -0.00000   0.00033  -0.00000   0.00064  -0.00000   0.00010   0.00000   0.00042  -0.00000  -0.00000  -0.00000  -0.00003  -0.00000  -0.00000  -0.00000  -0.00010  -0.00000  -0.43094  -0.00000  -0.01161  -0.00000  -0.00663  -0.00000   0.00317  -0.00000  -0.00939  -0.00000  -0.03001  -0.00000  -0.00668  -0.00000  -0.03070  -0.00000  -0.01700  -0.00000  -0.03790   0.00000  -0.03592  -0.00000  -0.01225   0.00000  -0.02342  -0.00000  -0.01754  -0.00000  -0.01597  -0.00000  -0.01749  -0.00000  -0.00031  -0.00000   0.00015   0.00000  -0.03147  -0.00000  -0.00047   0.00000  -0.03780   0.00000  -0.00046   0.00000   0.00029  -0.00000  -0.01570  -0.00000  -0.00026  -0.00000  -0.00081   0.00000  -0.00342   0.00000  -0.00560   0.00000  -0.00234  -0.00000  -0.00002   0.00000   0.00002   0.00000  -0.03045   0.00000   0.00021   0.00000  -0.00095  -0.00000  -0.00197   0.00000  -0.00197  -0.00000  -0.00169  -0.00000  -0.00662   0.00000   0.00115  -0.00000  -0.00040  -0.00000  -0.00385  -0.00000  -0.00890   0.00000  -0.00142  -0.00000   0.00418   0.00000  -0.00148   0.00000  -0.00086  -0.00000  -0.00352  -0.00000  -0.00361  -0.00000  -0.00275   0.00000  -0.00336   0.00000   0.00184   0.00000   0.00350   0.00000   0.00011  -0.00000  -0.00063   0.00000  -0.00059  -0.00000  -0.00028  -0.00000   0.00091
-24.88555  -0.00000  -0.01229  -0.00000  -0.26876   0.00000   0.04384   0.00000   0.00044   0.00000   0.00186   0.00000   0.00044  -0.00000  -0.04687   0.00000  -0.00924  -0.00000  -0.02391  -0.00000  -0.03205  -0.00000  -0.02620  -0.00000  -0.01923  -0.00000  -0.00081  -0.00000  -0.01924  -0.00000  -0.04687  -0.00000  -0.03204  -0.00000  -0.02390   0.00000  -0.00924   0.00000  -0.00334   0.00000  -0.00048   0.00000  -0.00052   0.00000  -0.00050  -0.00000  -0.00006   0.00000  -0.00028  -0.00000  -0.00009  -0.00000  -0.00012   0.00000  -0.00103   0.00000  -0.00053   0.00000  -0.00100   0.00000  -0.00053  -0.00000  -0.00023  -0.00000  -0.00083  -0.00000  -0.00054   0.00000  -0.00096   0.00000  -0.00000  -0.00000  -0.00000   0.00000  -0.00000  -0.00000   0.00000  -0.00000  -0.00829  -0.00000  -0.00247  -0.00000  -0.00325  -0.00000  -0.00248  -0.00000  -0.00088   0.00000   0.00023  -0.00000   0.00006  -0.00000   0.00008   0.00000   0.00110  -0.00000  -0.00037   0.00000   0.00190  -0.00000  -0.00037  -0.00000  -0.00066  -0.00000   0.00038  -0.00000   0.00010   0.00000   0.00037  -0.00000  -0.00000  -0.00000  -0.00006  -0.00000  -0.00000  -0.00000  -0.00009  -0.00000  -0.43174  -0.00000  -0.01134  -0.00000  -0.00631  -0.00000   0.00313  -0.00000  -0.00924  -0.00000  -0.03000  -0.00000  -0.00671  -0.00000  -0.03046  -0.00000  -0.01695  -0.00000  -0.03799   0.00000  -0.03562  -0.00000  -0.01219   0.00000  -0.02329  -0.00000  -0.01745  -0.00000  -0.01583  -0.00000  -0.01733  -0.00000  -0.00031  -0.00000   0.00012   0.00000  -0.03222  -0.00000  -0.00055   0.00000  -0.03818   0.00000  -0.00042   0.00000   0.00024  -0.00000  -0.01656  -0.00000  -0.00030  -0.00000  -0.00090   0.00000  -0.00362   0.00000  -0.00528   0.00000  -0.00260  -0.00000  -0.00001   0.00000   0.00003   0.00000  -0.03144   0.00000   0.00024   0.00000  -0.00090  -0.00000  -0.00194   0.00000  -0.00169  -0.00000  -0.00170  -0.00000  -0.00668   0.00000   0.00116  -0.00000  -0.00040  -0.00000  -0.00384  -0.00000  -0.00877   0.00000  -0.00142  -0.00000   0.00428   0.00000  -0.00148   0.00000  -0.00089  -0.00000  -0.00360  -0.00000  -0.00355  -0.00000  -0.00282   0.00000  -0.00312   0.00000   0.00189   0.00000   0.00353   0.00000   0.00011  -0.00000  -0.00062   0.00000  -0.00059  -0.00000  -0.00025  -0.00000   0.00090  -0.00000  -0.01174  -0.00000  -0.23839   0.00000   0.04478  -0.00000  -0.00025   0.00000   0.00216  -0.00000  -0.00025  -0.00000  -0.03902   0.00000  -0.00872  -0.00000  -0.02404  -0.00000  -0.03031  -0.00000  -0.02067  -0.00000  -0.01794  -0.00000  -0.00081  -0.00000  -0.01795  -0.00000  -0.03902  -0.00000  -0.03030  -0.00000  -0.02403   0.00000  -0.00872   0.00000  -0.00428  -0.00000   0.00023   0.00000  -0.00076  -0.00000   0.00021  -0.00000  -0.00012   0.00000  -0.00045  -0.00000  -0.00014  -0.00000  -0.00023   0.00000  -0.00071   0.00000  -0.00075   0.00000  -0.00046   0.00000  -0.00076  -0.00000  -0.00027  -0.00000  -0.00089  -0.00000  -0.00060   0.00000  -0.00122   0.00000  -0.00001   0.00000   0.00002   0.00000  -0.00000   0.00000  -0.00003  -0.00000  -0.00848  -0.00000  -0.00253  -0.00000  -0.00306  -0.00000  -0.00255  -0.00000   0.00014   0.00000   0.00031  -0.00000   0.00007  -0.00000   0.00037   0.00000   0.00112  -0.00000  -0.00041   0.00000   0.00198  -0.00000  -0.00041  -0.00000   0.00033  -0.00000   0.00064  -0.00000   0.00010   0.00000   0.00042  -0.00000  -0.00000  -0.00000  -0.00003  -0.00000  -0.00000  -0.00000  -0.00010  -0.00000  -0.43094  -0.00000  -0.01161  -0.00000  -0.00663  -0.00000   0.00317  -0.00000  -0.00939  -0.00000  -0.03001  -0.00000  -0.00668  -0.00000  -0.03070  -0.00000  -0.01700  -0.00000  -0.03790   0.00000  -0.03592  -0.00000  -0.01225   0.00000  -0.02342  -0.00000  -0.01754  -0.00000  -0.01597  -0.00000  -0.01749  -0.00000  -0.00031  -0.00000   0.00015   0.00000  -0.03147  -0.00000  -0.00047   0.00000  -0.03780   0.00000  -0.00046   0.00000   0.00029  -0.00000  -0.01570  -0.00000  -0.00026  -0.00000  -0.00081   0.00000  -0.00342   0.00000  -0.00560   0.00000  -0.00234  -0.00000  -0.00002   0.00000   0.00002   0.00000  -0.03045   0.00000   0.00021   0.00000  -0.00095  -0.00000  -0.00197   0.00000  -0.00197  -0.00000  -0.00169  -0.00000  -0.00662   0.00000   0.00115  -0.00000  -0.00040  -0.00000  -0.00385  -0.00000  -0.00890   0.00000  -0.00142  -0.00000   0.00418   0.00000  -0.00148   0.00000  -0.00086  -0.00000  -0.00352  -0.00000  -0.00361  -0.00000  -0.00275   0.00000  -0.00336   0.00000   0.00184   0.00000   0.00350   0.00000   0.00011  -0.00000  -0.00063   0.00000  -0.00059  -0.00000  -0.00028  -0.00000   0.00091
-24.83548  -0.00000  -0.01229  -0.00000  -0.26876   0.00000   0.04384   0.00000   0.00044   0.00000   0.00186   0.00000   0.00044  -0.00000  -0.04687   0.00000  -0.00924  -0.00000  -0.02391  -0.00000  -0.03205  -0.00000  -0.02620  -0.00000  -0.01923  -0.00000  -0.00081  -0.00000  -0.01924  -0.00000  -0.04687  -0.00000  -0.03204  -0.00000  -0.02390   0.00000  -0.00924   0.00000  -0.00334   0.00000  -0.00048   0.00000  -0.00052   0.00000  -0.00050  -0.00000  -0.00006   0.00000  -0.00028  -0.00000  -0.00009  -0.00000  -0.00012   0.00000  -0.00103   0.00000  -0.00053   0.00000  -0.00100   0.00000  -0.00053  -0.00000  -0.00023  -0.00000  -0.00083  -0.00000  -0.00054   0.00000  -0.00096   0.00000  -0.00000  -0.00000  -0.00000   0.00000  -0.00000  -0.00000   0.00000  -0.00000  -0.00829  -0.00000  -0.00247  -0.00000  -0.00325  -0.00000  -0.00248  -0.00000  -0.00088   0.00000   0.00023  -0.00000   0.00006  -0.00000   0.00008   0.00000   0.00110  -0.00000  -0.00037   0.00000   0.00190  -0.00000  -0.00037  -0.00000  -0.00066  -0.00000   0.00038  -0.00000   0.00010   0.00000   0.00037  -0.00000  -0.00000  -0.00000  -0.00006  -0.00000  -0.00000  -0.00000  -0.00009  -0.00000  -0.43174  -0.00000  -0.01134  -0.00000  -0.00631  -0.00000   0.00313  -0.00000  -0.00924  -0.00000  -0.03000  -0.00000  -0.00671  -0.00000  -0.03046  -0.00000  -0.01695  -0.00000  -0.03799   0.00000  -0.03562  -0.00000  -0.01219   0.00000  -0.02329  -0.00000  -0.01745  -0.00000  -0.01583  -0.00000  -0.01733  -0.00000  -0.00031  -0.00000   0.00012   0.00000  -0.03222  -0.00000  -0.00055   0.00000  -0.03818   0.00000  -0.00042   0.00000   0.00024  -0.00000  -0.01656  -0.00000  -0.00030  -0.00000  -0.00090   0.00000  -0.00362   0.00000  -0.00528   0.00000  -0.00260  -0.00000  -0.00001   0.00000   0.00003   0.00000  -0.03144   0.00000   0.00024   0.00000  -0.00090  -0.00000  -0.00194   0.00000  -0.00169  -0.00000  -0.00170  -0.00000  -0.00668   0.00000   0.00116  -0.00000  -0.00040  -0.00000  -0.00384  -0.00000  -0.00877   0.00000  -0.00142  -0.00000   0.00428   0.00000  -0.00148   0.00000  -0.00089  -0.00000  -0.00360  -0.00000  -0.00355  -0.00000  -0.00282   0.00000  -0.00312   0.00000   0.00189   0.00000   0.00353   0.00000   0.00011  -0.00000  -0.00062   0.00000  -0.00059  -0.00000  -0.00025  -0.00000   0.00090  -0.00000  -0.01174  -0.00000  -0.23839   0.00000   0.04478  -0.00000  -0.00025   0.00000   0.00216  -0.00000  -0.00025  -0.00000  -0.03902   0.00000  -0.00872  -0.00000  -0.02404  -0.00000  -0.03031  -0.00000  -0.02067  -0.00000  -0.01794  -0.00000  -0.00081  -0.00000  -0.01795  -0.00000  -0.03902  -0.00000  -0.03030  -0.00000  -0.02403   0.00000  -0.00872   0.00000  -0.00428  -0.00000   0.00023   0.00000  -0.00076  -0.00000   0.00021  -0.00000  -0.00012   0.00000  -0.00045  -0.00000  -0.00014  -0.00000  -0.00023   0.00000  -0.00071   0.00000  -0.00075   0.00000  -0.00046   0.00000  -0.00076  -0.00000  -0.00027  -0.00000  -0.00089  -0.00000  -0.00060   0.00000  -0.00122   0.00000  -0.00001   0.00000   0.00002   0.00000  -0.00000   0.00000  -0.00003  -0.00000  -0.00848  -0.00000  -0.00253  -0.00000  -0.00306  -0.00000  -0.00255  -0.00000   0.00014   0.00000   0.00031  -0.00000   0.00007  -0.00000   0.00037   0.00000   0.00112  -0.00000  -0.00041   0.00000   0.00198  -0.00000  -0.00041  -0.00000   0.00033  -0.00000   0.00064  -0.00000   0.00010   0.00000   0.00042  -0.00000  -0.00000  -0.00000  -0.00003  -0.00000  -0.00000  -0.00000  -0.00010  -0.00000  -0.43094  -0.00000  -0.01161  -0.00000  -0.00663  -0.00000   0.00317  -0.00000  -0.00939  -0.00000  -0.03001  -0.00000  -0.00668  -0.00000  -0.03070  -0.00000  -0.01700  -0.00000  -0.03790   0.00000  -0.03592  -0.00000  -0.01225   0.00000  -0.02342  -0.00000  -0.01754  -0.00000  -0.01597  -0.00000  -0.01749  -0.00000  -0.00031  -0.00000   0.00015   0.00000  -0.03147  -0.00000  -0.00047   0.00000  -0.03780   0.00000  -0.00046   0.00000   0.00029  -0.00000  -0.01570  -0.00000  -0.00026  -0.00000  -0.00081   0.00000  -0.00342   0.00000  -0.00560   0.00000  -0.00234  -0.00000  -0.00002   0.00000   0.00002   0.00000  -0.03045   0.00000   0.00021   0.00000  -0.00095  -0.00000  -0.00197   0.00000  -0.00197  -0.00000  -0.00169  -0.00000  -0.00662   0.00000   0.00115  -0.00000  -0.00040  -0.00000  -0.00385  -0.00000  -0.00890   0.00000  -0.00142  -0.00000   0.00418   0.00000  -0.00148   0.00000  -0.00086  -0.00000  -0.00352  -0.00000  -0.00361  -0.00000  -0.00275   0.00000  -0.00336   0.00000   0.00184   0.00000   0.00350   0.00000   0.00011  -0.00000  -0.00063   0.00000  -0.00059  -0.00000  -0.00028  -0.00000   0.00091