ESCALE ; pCOHP file generated by LOBSTER. Energy is shifted such that the Fermi level lies at 0 eV.
        51          2        701  -2.33498e+01   1.17002e+01   1.68593e+00 
Average
No.1:Ni24->O17(1.7983235063422929)
No.1:Ni24[4s]->O17[2s](1.7983235063422929)
No.1:Ni24[4s]->O17[2p_y](1.7983235063422929)
No.1:Ni24[4s]->O17[2p_z](1.7983235063422929)
No.1:Ni24[4s]->O17[2p_x](1.7983235063422929)
No.1:Ni24[3d_xy]->O17[2s](1.7983235063422929)
No.1:Ni24[3d_xy]->O17[2p_y](1.7983235063422929)
No.1:Ni24[3d_xy]->O17[2p_z](1.7983235063422929)
No.1:Ni24[3d_xy]->O17[2p_x](1.7983235063422929)
No.1:Ni24[3d_yz]->O17[2s](1.7983235063422929)
No.1:Ni24[3d_yz]->O17[2p_y](1.7983235063422929)
No.1:Ni24[3d_yz]->O17[2p_z](1.7983235063422929)
No.1:Ni24[3d_yz]->O17[2p_x](1.7983235063422929)
No.1:Ni24[3d_z^2]->O17[2s](1.7983235063422929)
No.1:Ni24[3d_z^2]->O17[2p_y](1.7983235063422929)
No.1:Ni24[3d_z^2]->O17[2p_z](1.7983235063422929)
No.1:Ni24[3d_z^2]->O17[2p_x](1.7983235063422929)
No.1:Ni24[3d_xz]->O17[2s](1.7983235063422929)
No.1:Ni24[3d_xz]->O17[2p_y](1.7983235063422929)
No.1:Ni24[3d_xz]->O17[2p_z](1.7983235063422929)
No.1:Ni24[3d_xz]->O17[2p_x](1.7983235063422929)
No.1:Ni24[3d_x^2-y^2]->O17[2s](1.7983235063422929)
No.1:Ni24[3d_x^2-y^2]->O17[2p_y](1.7983235063422929)
No.1:Ni24[3d_x^2-y^2]->O17[2p_z](1.7983235063422929)
No.1:Ni24[3d_x^2-y^2]->O17[2p_x](1.7983235063422929)
No.2:Ni24->O14(1.8663161569033264)
No.2:Ni24[4s]->O14[2s](1.8663161569033264)
No.2:Ni24[4s]->O14[2p_y](1.8663161569033264)
No.2:Ni24[4s]->O14[2p_z](1.8663161569033264)
No.2:Ni24[4s]->O14[2p_x](1.8663161569033264)
No.2:Ni24[3d_xy]->O14[2s](1.8663161569033264)
No.2:Ni24[3d_xy]->O14[2p_y](1.8663161569033264)
No.2:Ni24[3d_xy]->O14[2p_z](1.8663161569033264)
No.2:Ni24[3d_xy]->O14[2p_x](1.8663161569033264)
No.2:Ni24[3d_yz]->O14[2s](1.8663161569033264)
No.2:Ni24[3d_yz]->O14[2p_y](1.8663161569033264)
No.2:Ni24[3d_yz]->O14[2p_z](1.8663161569033264)
No.2:Ni24[3d_yz]->O14[2p_x](1.8663161569033264)
No.2:Ni24[3d_z^2]->O14[2s](1.8663161569033264)
No.2:Ni24[3d_z^2]->O14[2p_y](1.8663161569033264)
No.2:Ni24[3d_z^2]->O14[2p_z](1.8663161569033264)
No.2:Ni24[3d_z^2]->O14[2p_x](1.8663161569033264)
No.2:Ni24[3d_xz]->O14[2s](1.8663161569033264)
No.2:Ni24[3d_xz]->O14[2p_y](1.8663161569033264)
No.2:Ni24[3d_xz]->O14[2p_z](1.8663161569033264)
No.2:Ni24[3d_xz]->O14[2p_x](1.8663161569033264)
No.2:Ni24[3d_x^2-y^2]->O14[2s](1.8663161569033264)
No.2:Ni24[3d_x^2-y^2]->O14[2p_y](1.8663161569033264)
No.2:Ni24[3d_x^2-y^2]->O14[2p_z](1.8663161569033264)
No.2:Ni24[3d_x^2-y^2]->O14[2p_x](1.8663161569033264)
-25.03577   0.00000  -0.08330   0.00000  -1.31263   0.00000  -0.88006   0.00000   0.00000   0.00000  -0.06504   0.00000  -0.00000   0.00000   0.00005   0.00000  -0.00000   0.00000   0.00006   0.00000   0.00000   0.00000  -0.00000   0.00000  -0.00255   0.00000  -0.00000   0.00000   0.00006   0.00000  -0.31393   0.00000  -0.00000   0.00000  -0.04872   0.00000   0.00000   0.00000   0.00000   0.00000   0.00006   0.00000  -0.00000   0.00000  -0.00255   0.00000   0.00000   0.00000   0.00000   0.00000  -0.00000   0.00000   0.00000   0.00000  -0.76985   0.00000  -0.55910   0.00000   0.00181   0.00000   0.00072   0.00000  -0.03586   0.00000  -0.00476   0.00000  -0.00098   0.00000  -0.00000   0.00000  -0.00043   0.00000  -0.00007   0.00000  -0.00009   0.00000  -0.00001   0.00000  -0.00000   0.00000  -0.04660   0.00000   0.00110   0.00000  -0.00105   0.00000   0.00458   0.00000  -0.00678   0.00000  -0.00001   0.00000  -0.00014   0.00000  -0.00012   0.00000  -0.12786   0.00000  -0.00091   0.00000  -0.00026   0.00000   0.00701   0.00000  -0.07481   0.00000  -1.11993   0.00000  -0.79941   0.00000  -0.00000   0.00000  -0.05407   0.00000  -0.00000   0.00000   0.00005   0.00000   0.00000   0.00000   0.00003   0.00000   0.00000   0.00000   0.00000   0.00000  -0.00157   0.00000   0.00000   0.00000  -0.00000   0.00000  -0.24745   0.00000  -0.00000   0.00000  -0.01593   0.00000  -0.00000   0.00000   0.00000   0.00000  -0.00000   0.00000  -0.00000   0.00000  -0.00157   0.00000  -0.00000   0.00000  -0.00000   0.00000   0.00000   0.00000  -0.00000   0.00000  -0.75023   0.00000  -0.54576   0.00000   0.00167   0.00000   0.00086   0.00000  -0.03140   0.00000  -0.00461   0.00000  -0.00080   0.00000   0.00000   0.00000  -0.00037   0.00000  -0.00004   0.00000  -0.00008   0.00000  -0.00000   0.00000  -0.00003   0.00000  -0.04225   0.00000   0.00048   0.00000  -0.00031   0.00000   0.00222   0.00000  -0.00623   0.00000   0.00001   0.00000  -0.00027   0.00000  -0.00015   0.00000  -0.12834   0.00000  -0.00056   0.00000   0.00018   0.00000   0.00554
-24.98569   0.00101  -0.08325   0.02497  -1.31138   0.01881  -0.87912  -0.00000   0.00000  -0.00022  -0.06506  -0.00000  -0.00000  -0.00000   0.00005  -0.00000  -0.00000  -0.00000   0.00006   0.00000   0.00000  -0.00000  -0.00000  -0.00001  -0.00255   0.00000  -0.00000   0.00000   0.00006   0.00682  -0.31359  -0.00000  -0.00000  -0.00043  -0.04874  -0.00000   0.00000   0.00000   0.00000   0.00000   0.00006   0.00000  -0.00000  -0.00001  -0.00255   0.00000   0.00000   0.00000   0.00000   0.00000  -0.00000   0.00000   0.00000   0.00032  -0.76984   0.00075  -0.55906  -0.00012   0.00180  -0.00003   0.00072  -0.00071  -0.03590  -0.00000  -0.00476  -0.00000  -0.00098   0.00000  -0.00000   0.00000  -0.00043  -0.00000  -0.00007   0.00000  -0.00009  -0.00000  -0.00001  -0.00000  -0.00000  -0.00014  -0.04661   0.00010   0.00110   0.00003  -0.00105   0.00045   0.00460  -0.00001  -0.00678   0.00000  -0.00001  -0.00001  -0.00014  -0.00000  -0.00012  -0.00000  -0.12786  -0.00000  -0.00091   0.00000  -0.00026  -0.00000   0.00701   0.00000  -0.07481   0.00001  -1.11993   0.00001  -0.79941   0.00000  -0.00000  -0.00000  -0.05407   0.00000  -0.00000  -0.00000   0.00005   0.00000   0.00000  -0.00000   0.00003  -0.00000   0.00000   0.00000   0.00000  -0.00000  -0.00157   0.00000   0.00000  -0.00000  -0.00000   0.00000  -0.24745   0.00000  -0.00000  -0.00000  -0.01593   0.00000  -0.00000   0.00000   0.00000  -0.00000  -0.00000   0.00000  -0.00000  -0.00000  -0.00157   0.00000  -0.00000  -0.00000  -0.00000  -0.00000   0.00000  -0.00000  -0.00000  -0.00000  -0.75023   0.00000  -0.54576  -0.00000   0.00167  -0.00000   0.00086  -0.00000  -0.03140  -0.00000  -0.00461  -0.00000  -0.00080   0.00000   0.00000   0.00000  -0.00037  -0.00000  -0.00004   0.00000  -0.00008  -0.00000  -0.00000  -0.00000  -0.00003  -0.00000  -0.04225   0.00000   0.00048   0.00000  -0.00031   0.00000   0.00222  -0.00000  -0.00623  -0.00000   0.00001  -0.00000  -0.00027  -0.00000  -0.00015  -0.00000  -0.12834  -0.00000  -0.00056   0.00000   0.00018  -0.00000   0.00554
-24.93562   0.00054  -0.08322   0.01346  -1.31070   0.01015  -0.87861  -0.00000   0.00000  -0.00012  -0.06506  -0.00000  -0.00000  -0.00000   0.00005  -0.00000  -0.00000  -0.00000   0.00006   0.00000   0.00000  -0.00000  -0.00000  -0.00000  -0.00255   0.00000  -0.00000   0.00000   0.00006   0.00367  -0.31341  -0.00000  -0.00000  -0.00024  -0.04876  -0.00000   0.00000   0.00000   0.00000   0.00000   0.00006   0.00000  -0.00000  -0.00000  -0.00255   0.00000   0.00000   0.00000   0.00000   0.00000  -0.00000   0.00000   0.00000   0.00013  -0.76983   0.00035  -0.55904  -0.00006   0.00180  -0.00001   0.00072  -0.00038  -0.03592  -0.00000  -0.00476  -0.00000  -0.00098   0.00000  -0.00000   0.00000  -0.00043  -0.00000  -0.00007   0.00000  -0.00009  -0.00000  -0.00001  -0.00000  -0.00000  -0.00006  -0.04661   0.00006   0.00110   0.00002  -0.00105   0.00024   0.00461  -0.00000  -0.00679   0.00000  -0.00001  -0.00001  -0.00014  -0.00000  -0.00012  -0.00000  -0.12786  -0.00000  -0.00091   0.00000  -0.00026  -0.00000   0.00701   0.00000  -0.07481   0.00000  -1.11993   0.00000  -0.79941   0.00000  -0.00000  -0.00000  -0.05407   0.00000  -0.00000  -0.00000   0.00005   0.00000   0.00000  -0.00000   0.00003  -0.00000   0.00000   0.00000   0.00000  -0.00000  -0.00157   0.00000   0.00000  -0.00000  -0.00000   0.00000  -0.24745   0.00000  -0.00000  -0.00000  -0.01593   0.00000  -0.00000   0.00000   0.00000  -0.00000  -0.00000   0.00000  -0.00000  -0.00000  -0.00157   0.00000  -0.00000  -0.00000  -0.00000  -0.00000   0.00000  -0.00000  -0.00000  -0.00000  -0.75023   0.00000  -0.54576  -0.00000   0.00167  -0.00000   0.00086  -0.00000  -0.03140  -0.00000  -0.00461  -0.00000  -0.00080   0.00000   0.00000   0.00000  -0.00037  -0.00000  -0.00004   0.00000  -0.00008  -0.00000  -0.00000  -0.00000  -0.00003  -0.00000  -0.04225   0.00000   0.00048   0.00000  -0.00031   0.00000   0.00222  -0.00000  -0.00623  -0.00000   0.00001  -0.00000  -0.00027  -0.00000  -0.00015  -0.00000  -0.12834  -0.00000  -0.00056   0.00000   0.00018  -0.00000   0.00554
-24.88555   0.00026  -0.08321   0.00648  -1.31038   0.00489  -0.87837  -0.00000   0.00000  -0.00006  -0.06506  -0.00000  -0.00000  -0.00000   0.00005  -0.00000  -0.00000  -0.00000   0.00006   0.00000   0.00000  -0.00000  -0.00000  -0.00000  -0.00255   0.00000  -0.00000   0.00000   0.00006   0.00177  -0.31332  -0.00000  -0.00000  -0.00012  -0.04876  -0.00000   0.00000   0.00000   0.00000   0.00000   0.00006   0.00000  -0.00000  -0.00000  -0.00255   0.00000   0.00000   0.00000   0.00000   0.00000  -0.00000   0.00000   0.00000   0.00005  -0.76983   0.00015  -0.55903  -0.00003   0.00180  -0.00001   0.00072  -0.00018  -0.03593  -0.00000  -0.00476  -0.00000  -0.00098   0.00000  -0.00000   0.00000  -0.00043  -0.00000  -0.00007   0.00000  -0.00009  -0.00000  -0.00001  -0.00000  -0.00000  -0.00003  -0.04661   0.00003   0.00111   0.00001  -0.00105   0.00012   0.00462  -0.00000  -0.00679   0.00000  -0.00001  -0.00000  -0.00014  -0.00000  -0.00012  -0.00000  -0.12786  -0.00000  -0.00091   0.00000  -0.00026  -0.00000   0.00701   0.00000  -0.07481   0.00000  -1.11993   0.00000  -0.79941   0.00000  -0.00000  -0.00000  -0.05407   0.00000  -0.00000  -0.00000   0.00005   0.00000   0.00000  -0.00000   0.00003  -0.00000   0.00000   0.00000   0.00000  -0.00000  -0.00157   0.00000   0.00000  -0.00000  -0.00000   0.00000  -0.24745   0.00000  -0.00000  -0.00000  -0.01593   0.00000  -0.00000   0.00000   0.00000  -0.00000  -0.00000   0.00000  -0.00000  -0.00000  -0.00157   0.00000  -0.00000  -0.00000  -0.00000  -0.00000   0.00000  -0.00000  -0.00000  -0.00000  -0.75023   0.00000  -0.54576  -0.00000   0.00167  -0.00000   0.00086  -0.00000  -0.03140  -0.00000  -0.00461  -0.00000  -0.00080   0.00000   0.00000   0.00000  -0.00037  -0.00000  -0.00004   0.00000  -0.00008  -0.00000  -0.00000  -0.00000  -0.00003  -0.00000  -0.04225   0.00000   0.00048   0.00000  -0.00031   0.00000   0.00222  -0.00000  -0.00623  -0.00000   0.00001  -0.00000  -0.00027  -0.00000  -0.00015  -0.00000  -0.12834  -0.00000  -0.00056   0.00000   0.00018  -0.00000   0.00554
-24.83548   0.00011  -0.08320   0.00278  -1.31024   0.00210  -0.87826  -0.00000   0.00000  -0.00003  -0.06507  -0.00000  -0.00000  -0.00000   0.00005  -0.00000  -0.00000  -0.00000   0.00006   0.00000   0.00000  -0.00000  -0.00000  -0.00000  -0.00255   0.00000  -0.00000   0.00000   0.00006   0.00076  -0.31328  -0.00000  -0.00000  -0.00005  -0.04877  -0.00000   0.00000   0.00000   0.00000   0.00000   0.00006   0.00000  -0.00000  -0.00000  -0.00255   0.00000   0.00000   0.00000   0.00000   0.00000  -0.00000   0.00000   0.00000   0.00001  -0.76983   0.00006  -0.55903  -0.00001   0.00179  -0.00000   0.00072  -0.00008  -0.03593  -0.00000  -0.00476  -0.00000  -0.00098   0.00000  -0.00000   0.00000  -0.00043  -0.00000  -0.00007   0.00000  -0.00009  -0.00000  -0.00001  -0.00000  -0.00000  -0.00001  -0.04661   0.00001   0.00111   0.00000  -0.00105   0.00005   0.00462  -0.00000  -0.00679   0.00000  -0.00001  -0.00000  -0.00014  -0.00000  -0.00012  -0.00000  -0.12786  -0.00000  -0.00091   0.00000  -0.00026  -0.00000   0.00701   0.00000  -0.07481   0.00000  -1.11993   0.00000  -0.79941  -0.00000  -0.00000  -0.00000  -0.05407   0.00000  -0.00000  -0.00000   0.00005  -0.00000   0.00000  -0.00000   0.00003   0.00000   0.00000   0.00000   0.00000  -0.00000  -0.00157   0.00000   0.00000  -0.00000  -0.00000   0.00000  -0.24745  -0.00000  -0.00000  -0.00000  -0.01593   0.00000  -0.00000   0.00000   0.00000  -0.00000  -0.00000   0.00000  -0.00000  -0.00000  -0.00157  -0.00000  -0.00000  -0.00000  -0.00000  -0.00000   0.00000   0.00000  -0.00000   0.00000  -0.75023   0.00000  -0.54576  -0.00000   0.00167  -0.00000   0.00086  -0.00000  -0.03140  -0.00000  -0.00461  -0.00000  -0.00080   0.00000   0.00000   0.00000  -0.00037  -0.00000  -0.00004   0.00000  -0.00008  -0.00000  -0.00000  -0.00000  -0.00003  -0.00000  -0.04225   0.00000   0.00048   0.00000  -0.00031   0.00000   0.00222  -0.00000  -0.00623  -0.00000   0.00001  -0.00000  -0.00027  -0.00000  -0.00015  -0.00000  -0.12834  -0.00000  -0.00056   0.00000   0.00018  -0.00000   0.00554
-24.78541   0.00004  -0.08320   0.00106  -1.31018   0.00080  -0.87822  -0.00000   0.00000  -0.00001  -0.06507  -0.00000  -0.00000  -0.00000   0.00005  -0.00000  -0.00000  -0.00000   0.00006   0.00000   0.00000  -0.00000  -0.00000  -0.00000  -0.00255   0.00000  -0.00000   0.00000   0.00006   0.00029  -0.31326  -0.00000  -0.00000  -0.00002  -0.04877  -0.00000   0.00000   0.00000   0.00000   0.00000   0.00006   0.00000  -0.00000  -0.00000  -0.00255   0.00000   0.00000   0.00000   0.00000   0.00000  -0.00000   0.00000   0.00000   0.00000  -0.76983   0.00002  -0.55903  -0.00001   0.00179  -0.00000   0.00072  -0.00003  -0.03593  -0.00000  -0.00476  -0.00000  -0.00098   0.00000  -0.00000   0.00000  -0.00043  -0.00000  -0.00007   0.00000  -0.00009  -0.00000  -0.00001  -0.00000  -0.00000  -0.00000  -0.04661   0.00000   0.00111   0.00000  -0.00105   0.00002   0.00462  -0.00000  -0.00679   0.00000  -0.00001  -0.00000  -0.00014  -0.00000  -0.00012  -0.00000  -0.12786  -0.00000  -0.00091   0.00000  -0.00026  -0.00000   0.00701   0.00000  -0.07481   0.00000  -1.11993   0.00000  -0.79941  -0.00000  -0.00000   0.00000  -0.05407   0.00000  -0.00000  -0.00000   0.00005  -0.00000   0.00000   0.00000   0.00003   0.00000   0.00000   0.00000   0.00000  -0.00000  -0.00157  -0.00000   0.00000  -0.00000  -0.00000   0.00000  -0.24745  -0.00000  -0.00000   0.00000  -0.01593  -0.00000  -0.00000   0.00000   0.00000  -0.00000  -0.00000   0.00000  -0.00000  -0.00000  -0.00157  -0.00000  -0.00000  -0.00000  -0.00000  -0.00000   0.00000   0.00000  -0.00000   0.00000  -0.75023   0.00000  -0.54576  -0.00000   0.00167  -0.00000   0.00086  -0.00000  -0.03140  -0.00000  -0.00461  -0.00000  -0.00080   0.00000   0.00000   0.00000  -0.00037  -0.00000  -0.00004   0.00000  -0.00008  -0.00000  -0.00000  -0.00000  -0.00003  -0.00000  -0.04225   0.00000   0.00048   0.00000  -0.00031   0.00000   0.00222  -0.00000  -0.00623  -0.00000   0.00001  -0.00000  -0.00027  -0.00000  -0.00015  -0.00000  -0.12834  -0.00000  -0.00056   0.00000   0.00018  -0.00000   0.00554
-24.73534   0.00001  -0.08320   0.00036  -1.31017   0.00027  -0.87821  -0.00000   0.00000  -0.00000  -0.06507  -0.00000  -0.00000  -0.00000   0.00005  -0.00000  -0.00000  -0.00000   0.00006   0.00000   0.00000  -0.00000  -0.00000  -0.00000  -0.00255   0.00000  -0.00000   0.00000   0.00006   0.00010  -0.31326  -0.00000  -0.00000  -0.00001  -0.04877  -0.00000   0.00000   0.00000   0.00000   0.00000   0.00006   0.00000  -0.00000  -0.00000  -0.00255   0.00000   0.00000   0.00000   0.00000   0.00000  -0.00000   0.00000   0.00000   0.00000  -0.76983   0.00001  -0.55903  -0.00000   0.00179  -0.00000   0.00072  -0.00001  -0.03593  -0.00000  -0.00476  -0.00000  -0.00098   0.00000  -0.00000   0.00000  -0.00043  -0.00000  -0.00007   0.00000  -0.00009  -0.00000  -0.00001  -0.00000  -0.00000  -0.00000  -0.04661   0.00000   0.00111   0.00000  -0.00105   0.00001   0.00462  -0.00000  -0.00679   0.00000  -0.00001  -0.00000  -0.00014  -0.00000  -0.00012  -0.00000  -0.12786  -0.00000  -0.00091   0.00000  -0.00026  -0.00000   0.00701   0.00000  -0.07481   0.00000  -1.11993   0.00000  -0.79941  -0.00000  -0.00000   0.00000  -0.05407   0.00000  -0.00000  -0.00000   0.00005  -0.00000   0.00000   0.00000   0.00003   0.00000   0.00000   0.00000   0.00000  -0.00000  -0.00157  -0.00000   0.00000  -0.00000  -0.00000   0.00000  -0.24745  -0.00000  -0.00000   0.00000  -0.01593  -0.00000  -0.00000   0.00000   0.00000  -0.00000  -0.00000   0.00000  -0.00000  -0.00000  -0.00157  -0.00000  -0.00000  -0.00000  -0.00000  -0.00000   0.00000   0.00000  -0.00000   0.00000  -0.75023   0.00000  -0.54576  -0.00000   0.00167  -0.00000   0.00086   0.00000  -0.03140  -0.00000  -0.00461  -0.00000  -0.00080   0.00000   0.00000  -0.00000  -0.00037  -0.00000  -0.00004   0.00000  -0.00008  -0.00000  -0.00000  -0.00000  -0.00003  -0.00000  -0.04225   0.00000   0.00048   0.00000  -0.00031  -0.00000   0.00222  -0.00000  -0.00623  -0.00000   0.00001  -0.00000  -0.00027  -0.00000  -0.00015  -0.00000  -0.12834  -0.00000  -0.00056   0.00000   0.00018  -0.00000   0.00554
-24.68526   0.00000  -0.08320   0.00011  -1.31016   0.00008  -0.87821  -0.00000   0.00000  -0.00000  -0.06507  -0.00000  -0.00000  -0.00000   0.00005  -0.00000  -0.00000  -0.00000   0.00006   0.00000   0.00000  -0.00000  -0.00000  -0.00000  -0.00255   0.00000  -0.00000   0.00000   0.00006   0.00003  -0.31326  -0.00000  -0.00000  -0.00000  -0.04877  -0.00000   0.00000   0.00000   0.00000   0.00000   0.00006   0.00000  -0.00000  -0.00000  -0.00255   0.00000   0.00000   0.00000   0.00000   0.00000  -0.00000   0.00000   0.00000   0.00000  -0.76983   0.00000  -0.55903  -0.00000   0.00179  -0.00000   0.00072  -0.00000  -0.03593  -0.00000  -0.00476  -0.00000  -0.00098   0.00000  -0.00000   0.00000  -0.00043  -0.00000  -0.00007   0.00000  -0.00009  -0.00000  -0.00001  -0.00000  -0.00000  -0.00000  -0.04661   0.00000   0.00111   0.00000  -0.00105   0.00000   0.00462  -0.00000  -0.00679   0.00000  -0.00001  -0.00000  -0.00014  -0.00000  -0.00012  -0.00000  -0.12786  -0.00000  -0.00091   0.00000  -0.00026  -0.00000   0.00701   0.00000  -0.07481   0.00000  -1.11993   0.00000  -0.79941  -0.00000  -0.00000   0.00000  -0.05407   0.00000  -0.00000  -0.00000   0.00005  -0.00000   0.00000   0.00000   0.00003   0.00000   0.00000   0.00000   0.00000  -0.00000  -0.00157  -0.00000   0.00000  -0.00000  -0.00000   0.00000  -0.24745  -0.00000  -0.00000   0.00000  -0.01593  -0.00000  -0.00000   0.00000   0.00000  -0.00000  -0.00000   0.00000  -0.00000  -0.00000  -0.00157  -0.00000  -0.00000  -0.00000  -0.00000  -0.00000   0.00000   0.00000  -0.00000   0.00000  -0.75023   0.00000  -0.54576  -0.00000   0.00167  -0.00000   0.00086   0.00000  -0.03140  -0.00000  -0.00461  -0.00000  -0.00080   0.00000   0.00000  -0.00000  -0.00037  -0.00000  -0.00004   0.00000  -0.00008  -0.00000  -0.00000  -0.00000  -0.00003  -0.00000  -0.04225   0.00000   0.00048   0.00000  -0.00031  -0.00000   0.00222  -0.00000  -0.00623  -0.00000   0.00001  -0.00000  -0.00027  -0.00000  -0.00015  -0.00000  -0.12834  -0.00000  -0.00056   0.00000   0.00018  -0.00000   0.00554
-24.63519   0.00000  -0.08320   0.00003  -1.31016   0.00002  -0.87821  -0.00000   0.00000  -0.00000  -0.06507  -0.00000  -0.00000  -0.00000   0.00005  -0.00000  -0.00000  -0.00000   0.00006   0.00000   0.00000  -0.00000  -0.00000  -0.00000  -0.00255   0.00000  -0.00000   0.00000   0.00006   0.00001  -0.31326  -0.00000  -0.00000  -0.00000  -0.04877  -0.00000   0.00000   0.00000   0.00000   0.00000   0.00006   0.00000  -0.00000  -0.00000  -0.00255   0.00000   0.00000   0.00000   0.00000   0.00000  -0.00000   0.00000   0.00000  -0.00000  -0.76983   0.00000  -0.55903  -0.00000   0.00179  -0.00000   0.00072  -0.00000  -0.03593  -0.00000  -0.00476  -0.00000  -0.00098   0.00000  -0.00000   0.00000  -0.00043  -0.00000  -0.00007   0.00000  -0.00009  -0.00000  -0.00001  -0.00000  -0.00000  -0.00000  -0.04661   0.00000   0.00111   0.00000  -0.00105   0.00000   0.00462  -0.00000  -0.00679   0.00000  -0.00001  -0.00000  -0.00014  -0.00000  -0.00012  -0.00000  -0.12786  -0.00000  -0.00091   0.00000  -0.00026  -0.00000   0.00701   0.00000  -0.07481   0.00001  -1.11993   0.00001  -0.79941  -0.00000  -0.00000   0.00000  -0.05407   0.00000  -0.00000  -0.00000   0.00005  -0.00000   0.00000   0.00000   0.00003   0.00000   0.00000   0.00000   0.00000  -0.00000  -0.00157  -0.00000   0.00000  -0.00000  -0.00000   0.00000  -0.24745  -0.00000  -0.00000   0.00000  -0.01593  -0.00000  -0.00000   0.00000   0.00000  -0.00000  -0.00000   0.00000  -0.00000  -0.00000  -0.00157  -0.00000  -0.00000  -0.00000  -0.00000  -0.00000   0.00000   0.00000  -0.00000   0.00001  -0.75023   0.00001  -0.54576  -0.00000   0.00167  -0.00000   0.00086   0.00000  -0.03140  -0.00000  -0.00461  -0.00000  -0.00080   0.00000   0.00000  -0.00000  -0.00037  -0.00000  -0.00004   0.00000  -0.00008  -0.00000  -0.00000  -0.00000  -0.00003  -0.00000  -0.04225   0.00000   0.00048   0.00000  -0.00031  -0.00000   0.00222  -0.00000  -0.00623  -0.00000   0.00001  -0.00000  -0.00027  -0.00000  -0.00015  -0.00000  -0.12834  -0.00000  -0.00056   0.00000   0.00018  -0.00000   0.00554
-24.58512   0.00000  -0.08320   0.00001  -1.31016   0.00001  -0.87821  -0.00000   0.00000  -0.00000  -0.06507  -0.00000  -0.00000  -0.00000   0.00005  -0.00000  -0.00000  -0.00000   0.00006   0.00000   0.00000  -0.00000  -0.00000  -0.00000  -0.00255   0.00000  -0.00000   0.00000   0.00006   0.00000  -0.31326  -0.00000  -0.00000  -0.00000  -0.04877  -0.00000   0.00000   0.00000   0.00000   0.00000   0.00006   0.00000  -0.00000  -0.00000  -0.00255   0.00000   0.00000   0.00000   0.00000   0.00000  -0.00000   0.00000   0.00000  -0.00000  -0.76983   0.00000  -0.55903  -0.00000   0.00179  -0.00000   0.00072  -0.00000  -0.03593  -0.00000  -0.00476  -0.00000  -0.00098   0.00000  -0.00000   0.00000  -0.00043  -0.00000  -0.00007   0.00000  -0.00009  -0.00000  -0.00001  -0.00000  -0.00000  -0.00000  -0.04661   0.00000   0.00111   0.00000  -0.00105   0.00000   0.00462  -0.00000  -0.00679   0.00000  -0.00001  -0.00000  -0.00014  -0.00000  -0.00012  -0.00000  -0.12786  -0.00000  -0.00091   0.00000  -0.00026  -0.00000   0.00701   0.00000  -0.07481   0.00002  -1.11993   0.00002  -0.79941  -0.00000  -0.00000   0.00000  -0.05407   0.00000  -0.00000  -0.00000   0.00005  -0.00000   0.00000   0.00000   0.00003   0.00000   0.00000   0.00000   0.00000  -0.00000  -0.00157  -0.00000   0.00000  -0.00000  -0.00000   0.00001  -0.24745  -0.00000  -0.00000   0.00000  -0.01593  -0.00000  -0.00000   0.00000   0.00000  -0.00000  -0.00000   0.00000  -0.00000  -0.00000  -0.00157  -0.00000  -0.00000  -0.00000  -0.00000  -0.00000   0.00000   0.00000  -0.00000   0.00002  -0.75023   0.00003  -0.54576  -0.00000   0.00167  -0.00000   0.00086  -0.00000  -0.03140  -0.00000  -0.00461  -0.00000  -0.00080   0.00000   0.00000   0.00000  -0.00037  -0.00000  -0.00004   0.00000  -0.00008  -0.00000  -0.00000  -0.00000  -0.00003  -0.00001  -0.04225   0.00000   0.00048   0.00000  -0.00031  -0.00000   0.00222  -0.00000  -0.00623  -0.00000   0.00001  -0.00000  -0.00027  -0.00000  -0.00015  -0.00000  -0.12834  -0.00000  -0.00056   0.00000   0.00018  -0.00000   0.00554
-24.53505   0.00000  -0.08320   0.00000  -1.31016   0.00000  -0.87821  -0.00000   0.00000  -0.00000  -0.06507  -0.00000  -0.00000  -0.00000   0.00005  -0.00000  -0.00000  -0.00000   0.00006   0.00000   0.00000  -0.00000  -0.00000  -0.00000  -0.00255   0.00000  -0.00000   0.00000   0.00006   0.00000  -0.31326  -0.00000  -0.00000  -0.00000  -0.04877  -0.00000   0.00000   0.00000   0.00000   0.00000   0.00006   0.00000  -0.00000  -0.00000  -0.00255   0.00000   0.00000   0.00000   0.00000   0.00000  -0.00000   0.00000   0.00000   0.00000  -0.76983   0.00000  -0.55903  -0.00000   0.00179  -0.00000   0.00072  -0.00000  -0.03593  -0.00000  -0.00476  -0.00000  -0.00098   0.00000  -0.00000   0.00000  -0.00043  -0.00000  -0.00007   0.00000  -0.00009  -0.00000  -0.00001  -0.00000  -0.00000  -0.00000  -0.04661   0.00000   0.00111   0.00000  -0.00105   0.00000   0.00462  -0.00000  -0.00679   0.00000  -0.00001  -0.00000  -0.00014  -0.00000  -0.00012  -0.00000  -0.12786  -0.00000  -0.00091   0.00000  -0.00026  -0.00000   0.00701   0.00000  -0.07481   0.00006  -1.11993   0.00004  -0.79941  -0.00000  -0.00000   0.00000  -0.05407   0.00000  -0.00000  -0.00000   0.00005  -0.00000   0.00000   0.00000   0.00003   0.00000   0.00000   0.00000   0.00000  -0.00000  -0.00157  -0.00000   0.00000  -0.00000  -0.00000   0.00002  -0.24745  -0.00000  -0.00000   0.00000  -0.01593  -0.00000  -0.00000   0.00000   0.00000  -0.00000  -0.00000   0.00000  -0.00000  -0.00000  -0.00157  -0.00000  -0.00000  -0.00000  -0.00000  -0.00000   0.00000   0.00000  -0.00000   0.00005  -0.75023   0.00006  -0.54576  -0.00000   0.00167  -0.00000   0.00086  -0.00000  -0.03140  -0.00000  -0.00461  -0.00000  -0.00080   0.00000   0.00000   0.00000  -0.00037  -0.00000  -0.00004   0.00000  -0.00008  -0.00000  -0.00000  -0.00000  -0.00003  -0.00001  -0.04225   0.00000   0.00048   0.00000  -0.00031   0.00000   0.00222  -0.00000  -0.00623  -0.00000   0.00001  -0.00000  -0.00027  -0.00000  -0.00015  -0.00000  -0.12834  -0.00000  -0.00056   0.00000   0.00018  -0.00000   0.00554
-24.48498   0.00000  -0.08320   0.00000  -1.31016   0.00000  -0.87821   0.00000   0.00000  -0.00000  -0.06507  -0.00000  -0.00000  -0.00000   0.00005  -0.00000  -0.00000  -0.00000   0.00006   0.00000   0.00000  -0.00000  -0.00000  -0.00000  -0.00255   0.00000  -0.00000   0.00000   0.00006   0.00000  -0.31326  -0.00000  -0.00000  -0.00000  -0.04877  -0.00000   0.00000   0.00000   0.00000   0.00000   0.00006   0.00000  -0.00000  -0.00000  -0.00255   0.00000   0.00000   0.00000   0.00000   0.00000  -0.00000  -0.00000   0.00000   0.00000  -0.76983   0.00000  -0.55903  -0.00000   0.00179  -0.00000   0.00072  -0.00000  -0.03593  -0.00000  -0.00476  -0.00000  -0.00098   0.00000  -0.00000   0.00000  -0.00043  -0.00000  -0.00007   0.00000  -0.00009  -0.00000  -0.00001  -0.00000  -0.00000  -0.00000  -0.04661   0.00000   0.00111   0.00000  -0.00105   0.00000   0.00462  -0.00000  -0.00679   0.00000  -0.00001  -0.00000  -0.00014  -0.00000  -0.00012  -0.00000  -0.12786  -0.00000  -0.00091   0.00000  -0.00026  -0.00000   0.00701   0.00001  -0.07481   0.00014  -1.11992   0.00010  -0.79940  -0.00000  -0.00000   0.00000  -0.05407   0.00000  -0.00000  -0.00000   0.00005  -0.00000   0.00000   0.00000   0.00003   0.00000   0.00000   0.00000   0.00000  -0.00000  -0.00157  -0.00000   0.00000  -0.00000  -0.00000   0.00004  -0.24744  -0.00000  -0.00000   0.00000  -0.01593  -0.00000  -0.00000   0.00000   0.00000  -0.00000  -0.00000   0.00000  -0.00000  -0.00000  -0.00157  -0.00000  -0.00000  -0.00000  -0.00000  -0.00000   0.00000   0.00000  -0.00000   0.00011  -0.75022   0.00014  -0.54575  -0.00000   0.00167  -0.00001   0.00086  -0.00000  -0.03140  -0.00000  -0.00461  -0.00000  -0.00080   0.00000   0.00000   0.00000  -0.00037  -0.00000  -0.00004   0.00000  -0.00008  -0.00000  -0.00000  -0.00000  -0.00003  -0.00003  -0.04225   0.00000   0.00048   0.00001  -0.00031   0.00000   0.00222  -0.00000  -0.00623  -0.00000   0.00001  -0.00000  -0.00027  -0.00000  -0.00015  -0.00000  -0.12834  -0.00000  -0.00056   0.00000   0.00018  -0.00000   0.00554
-24.43491   0.00000  -0.08320   0.00000  -1.31016   0.00000  -0.87821   0.00000   0.00000  -0.00000  -0.06507  -0.00000  -0.00000  -0.00000   0.00005  -0.00000  -0.00000  -0.00000   0.00006  -0.00000   0.00000  -0.00000  -0.00000  -0.00000  -0.00255   0.00000  -0.00000   0.00000   0.00006   0.00000  -0.31326  -0.00000  -0.00000  -0.00000  -0.04877  -0.00000   0.00000   0.00000   0.00000   0.00000   0.00006   0.00000  -0.00000  -0.00000  -0.00255  -0.00000   0.00000   0.00000   0.00000   0.00000  -0.00000  -0.00000   0.00000   0.00000  -0.76983   0.00000  -0.55903  -0.00000   0.00179  -0.00000   0.00072   0.00000  -0.03593  -0.00000  -0.00476  -0.00000  -0.00098   0.00000  -0.00000  -0.00000  -0.00043  -0.00000  -0.00007   0.00000  -0.00009  -0.00000  -0.00001  -0.00000  -0.00000  -0.00000  -0.04661   0.00000   0.00111   0.00000  -0.00105  -0.00000   0.00462  -0.00000  -0.00679   0.00000  -0.00001  -0.00000  -0.00014  -0.00000  -0.00012  -0.00000  -0.12786  -0.00000  -0.00091   0.00000  -0.00026  -0.00000   0.00701   0.00002  -0.07480   0.00027  -1.11991   0.00019  -0.79939  -0.00000  -0.00000   0.00000  -0.05407   0.00000  -0.00000  -0.00000   0.00005  -0.00000   0.00000   0.00000   0.00003   0.00000   0.00000   0.00000   0.00000  -0.00000  -0.00157  -0.00000   0.00000  -0.00000  -0.00000   0.00007  -0.24744  -0.00000  -0.00000   0.00000  -0.01593  -0.00000  -0.00000   0.00000   0.00000  -0.00000  -0.00000   0.00000  -0.00000  -0.00000  -0.00157  -0.00000  -0.00000  -0.00000  -0.00000  -0.00000   0.00000   0.00000  -0.00000   0.00021  -0.75021   0.00027  -0.54574  -0.00000   0.00167  -0.00002   0.00086  -0.00000  -0.03140  -0.00000  -0.00461  -0.00000  -0.00080   0.00000   0.00000   0.00000  -0.00037  -0.00000  -0.00004   0.00000  -0.00008  -0.00000  -0.00000  -0.00000  -0.00003  -0.00006  -0.04225   0.00000   0.00048   0.00002  -0.00031   0.00000   0.00222  -0.00000  -0.00623  -0.00000   0.00001  -0.00000  -0.00027  -0.00000  -0.00015  -0.00000  -0.12834  -0.00000  -0.00056   0.00000   0.00018  -0.00000   0.00554