ESCALE ; pCOHP file generated by LOBSTER. Energy is shifted such that the Fermi level lies at 0 eV.
        38          2        801  -1.95592e+01   2.04908e+01   5.47207e+00 
Average
No.1:Ge1->O3(1.9452648971798125)
No.1:Ge1[4s]->O3[2s](1.9452648971798125)
No.1:Ge1[4s]->O3[2p_y](1.9452648971798125)
No.1:Ge1[4s]->O3[2p_z](1.9452648971798125)
No.1:Ge1[4s]->O3[2p_x](1.9452648971798125)
No.1:Ge1[4p_y]->O3[2s](1.9452648971798125)
No.1:Ge1[4p_y]->O3[2p_y](1.9452648971798125)
No.1:Ge1[4p_y]->O3[2p_z](1.9452648971798125)
No.1:Ge1[4p_y]->O3[2p_x](1.9452648971798125)
No.1:Ge1[4p_z]->O3[2s](1.9452648971798125)
No.1:Ge1[4p_z]->O3[2p_y](1.9452648971798125)
No.1:Ge1[4p_z]->O3[2p_z](1.9452648971798125)
No.1:Ge1[4p_z]->O3[2p_x](1.9452648971798125)
No.1:Ge1[4p_x]->O3[2s](1.9452648971798125)
No.1:Ge1[4p_x]->O3[2p_y](1.9452648971798125)
No.1:Ge1[4p_x]->O3[2p_z](1.9452648971798125)
No.1:Ge1[4p_x]->O3[2p_x](1.9452648971798125)
No.1:Ge1[3d_xy]->O3[2s](1.9452648971798125)
No.1:Ge1[3d_xy]->O3[2p_y](1.9452648971798125)
No.1:Ge1[3d_xy]->O3[2p_z](1.9452648971798125)
No.1:Ge1[3d_xy]->O3[2p_x](1.9452648971798125)
No.1:Ge1[3d_yz]->O3[2s](1.9452648971798125)
No.1:Ge1[3d_yz]->O3[2p_y](1.9452648971798125)
No.1:Ge1[3d_yz]->O3[2p_z](1.9452648971798125)
No.1:Ge1[3d_yz]->O3[2p_x](1.9452648971798125)
No.1:Ge1[3d_z^2]->O3[2s](1.9452648971798125)
No.1:Ge1[3d_z^2]->O3[2p_y](1.9452648971798125)
No.1:Ge1[3d_z^2]->O3[2p_z](1.9452648971798125)
No.1:Ge1[3d_z^2]->O3[2p_x](1.9452648971798125)
No.1:Ge1[3d_xz]->O3[2s](1.9452648971798125)
No.1:Ge1[3d_xz]->O3[2p_y](1.9452648971798125)
No.1:Ge1[3d_xz]->O3[2p_z](1.9452648971798125)
No.1:Ge1[3d_xz]->O3[2p_x](1.9452648971798125)
No.1:Ge1[3d_x^2-y^2]->O3[2s](1.9452648971798125)
No.1:Ge1[3d_x^2-y^2]->O3[2p_y](1.9452648971798125)
No.1:Ge1[3d_x^2-y^2]->O3[2p_z](1.9452648971798125)
No.1:Ge1[3d_x^2-y^2]->O3[2p_x](1.9452648971798125)
-25.03129   0.00000  -0.00001   0.00000  -0.00010   0.00000  -0.00001   0.00000  -0.00000   0.00000   0.00000   0.00000  -0.00000   0.00000  -0.00000   0.00000  -0.00000   0.00000  -0.00000   0.00000   0.00000   0.00000  -0.00002   0.00000  -0.00000   0.00000   0.00001   0.00000  -0.00000   0.00000  -0.00000   0.00000   0.00000   0.00000  -0.00000   0.00000  -0.00000   0.00000   0.00000   0.00000  -0.00000   0.00000   0.00000   0.00000  -0.00000   0.00000  -0.00000   0.00000  -0.00000   0.00000  -0.00000   0.00000   0.00000   0.00000  -0.00008   0.00000   0.00000   0.00000   0.00000   0.00000   0.00000   0.00000   0.00000   0.00000   0.00000   0.00000  -0.00000   0.00000  -0.00000   0.00000   0.00000   0.00000  -0.00000   0.00000  -0.00000   0.00000   0.00000   0.00000  -0.00001   0.00000  -0.00010   0.00000  -0.00001   0.00000  -0.00000   0.00000   0.00000   0.00000  -0.00000   0.00000  -0.00000   0.00000  -0.00000   0.00000  -0.00000   0.00000   0.00000   0.00000  -0.00002   0.00000  -0.00000   0.00000   0.00001   0.00000  -0.00000   0.00000  -0.00000   0.00000   0.00000   0.00000  -0.00000   0.00000  -0.00000   0.00000   0.00000   0.00000  -0.00000   0.00000   0.00000   0.00000  -0.00000   0.00000  -0.00000   0.00000  -0.00000   0.00000  -0.00000   0.00000   0.00000   0.00000  -0.00008   0.00000   0.00000   0.00000   0.00000   0.00000   0.00000   0.00000   0.00000   0.00000   0.00000   0.00000  -0.00000   0.00000  -0.00000   0.00000   0.00000   0.00000  -0.00000   0.00000  -0.00000   0.00000   0.00000
-24.98123  -0.00019  -0.00002  -0.00357  -0.00028  -0.00018  -0.00001  -0.00000  -0.00000   0.00012   0.00001  -0.00000  -0.00000  -0.00000  -0.00000  -0.00000  -0.00000  -0.00000  -0.00000   0.00000   0.00000  -0.00089  -0.00007  -0.00000  -0.00000   0.00023   0.00002  -0.00000  -0.00000  -0.00000  -0.00000   0.00000   0.00000  -0.00000  -0.00000  -0.00000  -0.00000   0.00000   0.00000  -0.00000  -0.00000   0.00000   0.00000  -0.00000  -0.00000  -0.00000  -0.00000  -0.00000  -0.00000  -0.00000  -0.00000   0.00000   0.00000  -0.00277  -0.00022   0.00000   0.00000  -0.00007  -0.00000   0.00000   0.00000   0.00000   0.00000   0.00000   0.00000  -0.00000  -0.00000  -0.00000  -0.00000   0.00000   0.00000  -0.00000  -0.00000  -0.00000  -0.00000   0.00000   0.00000  -0.00019  -0.00002  -0.00357  -0.00028  -0.00018  -0.00001  -0.00000  -0.00000   0.00012   0.00001  -0.00000  -0.00000  -0.00000  -0.00000  -0.00000  -0.00000  -0.00000  -0.00000   0.00000   0.00000  -0.00089  -0.00007  -0.00000  -0.00000   0.00023   0.00002  -0.00000  -0.00000  -0.00000  -0.00000   0.00000   0.00000  -0.00000  -0.00000  -0.00000  -0.00000   0.00000   0.00000  -0.00000  -0.00000   0.00000   0.00000  -0.00000  -0.00000  -0.00000  -0.00000  -0.00000  -0.00000  -0.00000  -0.00000   0.00000   0.00000  -0.00277  -0.00022   0.00000   0.00000  -0.00007  -0.00000   0.00000   0.00000   0.00000   0.00000   0.00000   0.00000  -0.00000  -0.00000  -0.00000  -0.00000   0.00000   0.00000  -0.00000  -0.00000  -0.00000  -0.00000   0.00000   0.00000
-24.93116  -0.00046  -0.00004  -0.00842  -0.00070  -0.00040  -0.00003  -0.00000  -0.00000   0.00029   0.00002  -0.00000  -0.00000  -0.00000  -0.00000  -0.00001  -0.00000  -0.00000  -0.00000   0.00000   0.00000  -0.00212  -0.00018  -0.00000  -0.00000   0.00054   0.00004  -0.00000  -0.00000  -0.00000  -0.00000   0.00000   0.00000  -0.00000  -0.00000  -0.00001  -0.00000   0.00000   0.00000  -0.00000  -0.00000   0.00000   0.00000  -0.00000  -0.00000  -0.00000  -0.00000  -0.00001  -0.00000  -0.00000  -0.00000   0.00000   0.00000  -0.00639  -0.00054   0.00000   0.00000  -0.00033  -0.00002   0.00000   0.00000   0.00000   0.00000   0.00000   0.00000  -0.00000  -0.00000  -0.00001  -0.00000   0.00000   0.00000  -0.00000  -0.00000  -0.00000  -0.00000   0.00000   0.00000  -0.00046  -0.00004  -0.00842  -0.00070  -0.00040  -0.00003  -0.00000  -0.00000   0.00029   0.00002  -0.00000  -0.00000  -0.00000  -0.00000  -0.00001  -0.00000  -0.00000  -0.00000   0.00000   0.00000  -0.00212  -0.00018  -0.00000  -0.00000   0.00054   0.00004  -0.00000  -0.00000  -0.00000  -0.00000   0.00000   0.00000  -0.00000  -0.00000  -0.00001  -0.00000   0.00000   0.00000  -0.00000  -0.00000   0.00000   0.00000  -0.00000  -0.00000  -0.00000  -0.00000  -0.00001  -0.00000  -0.00000  -0.00000   0.00000   0.00000  -0.00639  -0.00054   0.00000   0.00000  -0.00033  -0.00002   0.00000   0.00000   0.00000   0.00000   0.00000   0.00000  -0.00000  -0.00000  -0.00001  -0.00000   0.00000   0.00000  -0.00000  -0.00000  -0.00000  -0.00000   0.00000   0.00000
-24.88110  -0.00096  -0.00009  -0.01779  -0.00159  -0.00081  -0.00007  -0.00000  -0.00000   0.00064   0.00006  -0.00000  -0.00000  -0.00000  -0.00000  -0.00002  -0.00000  -0.00000  -0.00000   0.00000   0.00000  -0.00449  -0.00040  -0.00000  -0.00000   0.00116   0.00010  -0.00000  -0.00000  -0.00000  -0.00000   0.00000   0.00000  -0.00000  -0.00000  -0.00002  -0.00000   0.00000   0.00000  -0.00000  -0.00000   0.00001   0.00000  -0.00000  -0.00000  -0.00000  -0.00000  -0.00002  -0.00000  -0.00000  -0.00000   0.00000   0.00000  -0.01312  -0.00120   0.00000   0.00000  -0.00110  -0.00007   0.00000   0.00000   0.00000   0.00000   0.00000   0.00000  -0.00000  -0.00000  -0.00002  -0.00000   0.00000   0.00000  -0.00000  -0.00000  -0.00000  -0.00000   0.00000   0.00000  -0.00096  -0.00009  -0.01779  -0.00159  -0.00081  -0.00007  -0.00000  -0.00000   0.00064   0.00006  -0.00000  -0.00000  -0.00000  -0.00000  -0.00002  -0.00000  -0.00000  -0.00000   0.00000   0.00000  -0.00449  -0.00040  -0.00000  -0.00000   0.00116   0.00010  -0.00000  -0.00000  -0.00000  -0.00000   0.00000   0.00000  -0.00000  -0.00000  -0.00002  -0.00000   0.00000   0.00000  -0.00000  -0.00000   0.00001   0.00000  -0.00000  -0.00000  -0.00000  -0.00000  -0.00002  -0.00000  -0.00000  -0.00000   0.00000   0.00000  -0.01312  -0.00120   0.00000   0.00000  -0.00110  -0.00007   0.00000   0.00000   0.00000   0.00000   0.00000   0.00000  -0.00000  -0.00000  -0.00002  -0.00000   0.00000   0.00000  -0.00000  -0.00000  -0.00000  -0.00000   0.00000   0.00000
-24.83104  -0.00182  -0.00018  -0.03372  -0.00328  -0.00146  -0.00015  -0.00000  -0.00000   0.00123   0.00012  -0.00000  -0.00000  -0.00000  -0.00000  -0.00004  -0.00000  -0.00000  -0.00000   0.00000   0.00000  -0.00848  -0.00082  -0.00000  -0.00000   0.00220   0.00021  -0.00000  -0.00000  -0.00000  -0.00000   0.00000   0.00000  -0.00000  -0.00000  -0.00004  -0.00000   0.00000   0.00000  -0.00000  -0.00000   0.00002   0.00000  -0.00000  -0.00000  -0.00000  -0.00000  -0.00004  -0.00000  -0.00000  -0.00000   0.00000   0.00000  -0.02408  -0.00240   0.00000   0.00000  -0.00298  -0.00022   0.00000   0.00000   0.00000   0.00000   0.00000   0.00000  -0.00000  -0.00000  -0.00004  -0.00000  -0.00000  -0.00000  -0.00000  -0.00000  -0.00000  -0.00000   0.00000   0.00000  -0.00182  -0.00018  -0.03372  -0.00328  -0.00146  -0.00015  -0.00000  -0.00000   0.00123   0.00012  -0.00000  -0.00000  -0.00000  -0.00000  -0.00004  -0.00000  -0.00000  -0.00000   0.00000   0.00000  -0.00848  -0.00082  -0.00000  -0.00000   0.00220   0.00021  -0.00000  -0.00000  -0.00000  -0.00000   0.00000   0.00000  -0.00000  -0.00000  -0.00004  -0.00000   0.00000   0.00000  -0.00000  -0.00000   0.00002   0.00000  -0.00000  -0.00000  -0.00000  -0.00000  -0.00004  -0.00000  -0.00000  -0.00000   0.00000   0.00000  -0.02408  -0.00240   0.00000   0.00000  -0.00298  -0.00022   0.00000   0.00000   0.00000   0.00000   0.00000   0.00000  -0.00000  -0.00000  -0.00004  -0.00000  -0.00000   0.00000  -0.00000  -0.00000  -0.00000  -0.00000   0.00000   0.00000
-24.78098  -0.00311  -0.00033  -0.05756  -0.00616  -0.00236  -0.00027  -0.00000  -0.00000   0.00215   0.00023  -0.00000  -0.00000  -0.00000  -0.00000  -0.00008  -0.00001  -0.00000  -0.00000   0.00000   0.00000  -0.01433  -0.00154  -0.00000  -0.00000   0.00373   0.00040  -0.00000  -0.00000  -0.00000  -0.00000   0.00000   0.00000  -0.00000  -0.00000  -0.00008  -0.00001   0.00000   0.00000  -0.00000  -0.00000   0.00003   0.00000  -0.00000  -0.00000  -0.00000  -0.00000  -0.00010  -0.00001  -0.00000  -0.00000   0.00000   0.00000  -0.03953  -0.00438   0.00000   0.00000  -0.00689  -0.00057   0.00000   0.00000   0.00000   0.00000   0.00000   0.00000  -0.00000  -0.00000  -0.00010  -0.00001  -0.00000  -0.00000  -0.00000  -0.00000  -0.00000  -0.00000   0.00000   0.00000  -0.00311  -0.00033  -0.05756  -0.00616  -0.00236  -0.00027  -0.00000  -0.00000   0.00215   0.00023  -0.00000  -0.00000  -0.00000  -0.00000  -0.00008  -0.00001  -0.00000  -0.00000   0.00000   0.00000  -0.01434  -0.00154  -0.00000  -0.00000   0.00373   0.00040  -0.00000  -0.00000  -0.00000  -0.00000   0.00000   0.00000  -0.00000  -0.00000  -0.00008  -0.00001   0.00000   0.00000  -0.00000  -0.00000   0.00003   0.00000  -0.00000  -0.00000  -0.00000  -0.00000  -0.00010  -0.00001  -0.00000  -0.00000   0.00000   0.00000  -0.03954  -0.00438   0.00000   0.00000  -0.00689  -0.00057   0.00000   0.00000   0.00000   0.00000   0.00000   0.00000  -0.00000  -0.00000  -0.00010  -0.00001  -0.00000  -0.00000  -0.00000  -0.00000  -0.00000  -0.00000   0.00000   0.00000
-24.73091  -0.00480  -0.00057  -0.08885  -0.01061  -0.00344  -0.00044  -0.00000  -0.00000   0.00336   0.00039  -0.00000  -0.00000  -0.00000  -0.00000  -0.00012  -0.00001  -0.00000  -0.00000   0.00000   0.00000  -0.02172  -0.00263  -0.00000  -0.00000   0.00569   0.00068  -0.00000  -0.00000  -0.00000  -0.00000   0.00000   0.00000  -0.00000  -0.00000  -0.00012  -0.00001   0.00000   0.00000  -0.00000  -0.00000   0.00005   0.00001  -0.00000  -0.00000  -0.00000  -0.00000  -0.00024  -0.00002  -0.00000  -0.00000   0.00000   0.00000  -0.05814  -0.00729   0.00000   0.00000  -0.01394  -0.00127   0.00000   0.00000   0.00000   0.00000   0.00000   0.00000  -0.00000  -0.00000  -0.00024  -0.00002  -0.00000  -0.00000  -0.00000  -0.00000  -0.00000  -0.00000   0.00000   0.00000  -0.00480  -0.00057  -0.08886  -0.01061  -0.00344  -0.00044  -0.00000  -0.00000   0.00336   0.00039  -0.00000  -0.00000  -0.00000  -0.00000  -0.00012  -0.00001  -0.00000  -0.00000   0.00000   0.00000  -0.02172  -0.00263  -0.00000  -0.00000   0.00569   0.00068  -0.00000  -0.00000  -0.00000  -0.00000   0.00000   0.00000  -0.00000  -0.00000  -0.00012  -0.00001   0.00000   0.00000  -0.00000  -0.00000   0.00005   0.00001  -0.00000  -0.00000  -0.00000  -0.00000  -0.00024  -0.00002  -0.00000  -0.00000   0.00000   0.00000  -0.05815  -0.00729   0.00000   0.00000  -0.01395  -0.00127   0.00000   0.00000   0.00000   0.00000   0.00000   0.00000  -0.00000  -0.00000  -0.00024  -0.00002  -0.00000  -0.00000  -0.00000  -0.00000  -0.00000  -0.00000   0.00000   0.00000
-24.68085  -0.00674  -0.00091  -0.12473  -0.01685  -0.00454  -0.00067  -0.00000  -0.00000   0.00473   0.00063  -0.00000  -0.00000  -0.00000  -0.00000  -0.00015  -0.00002  -0.00000  -0.00000   0.00000   0.00000  -0.02959  -0.00411  -0.00000  -0.00000   0.00778   0.00107  -0.00000  -0.00000  -0.00000  -0.00000   0.00000   0.00000  -0.00000  -0.00000  -0.00015  -0.00002   0.00000   0.00000  -0.00000  -0.00000   0.00007   0.00001  -0.00000  -0.00000  -0.00000  -0.00000  -0.00054  -0.00005  -0.00000  -0.00000   0.00000   0.00000  -0.07679  -0.01113   0.00000   0.00000  -0.02502  -0.00252   0.00000   0.00000   0.00000   0.00000   0.00000   0.00000  -0.00000  -0.00000  -0.00054  -0.00005  -0.00000  -0.00000  -0.00000  -0.00000  -0.00000  -0.00000   0.00000   0.00000  -0.00674  -0.00091  -0.12474  -0.01685  -0.00454  -0.00067  -0.00000  -0.00000   0.00473   0.00063  -0.00000  -0.00000  -0.00000  -0.00000  -0.00015  -0.00002  -0.00000  -0.00000   0.00000   0.00000  -0.02959  -0.00411  -0.00000  -0.00000   0.00778   0.00107  -0.00000  -0.00000  -0.00000  -0.00000   0.00000   0.00000  -0.00000  -0.00000  -0.00015  -0.00002   0.00000   0.00000  -0.00000  -0.00000   0.00007   0.00001  -0.00000  -0.00000  -0.00000  -0.00000  -0.00054  -0.00005  -0.00000  -0.00000   0.00000   0.00000  -0.07679  -0.01114   0.00000   0.00000  -0.02503  -0.00252   0.00000   0.00000   0.00000   0.00000   0.00000   0.00000  -0.00000  -0.00000  -0.00054  -0.00005  -0.00000  -0.00000  -0.00000  -0.00000  -0.00000  -0.00000   0.00000   0.00000
-24.63079  -0.00867  -0.00134  -0.16038  -0.02488  -0.00548  -0.00094  -0.00000  -0.00000   0.00599   0.00093  -0.00000  -0.00000  -0.00000  -0.00000  -0.00016  -0.00003  -0.00000  -0.00000   0.00000   0.00000  -0.03635  -0.00593  -0.00000  -0.00000   0.00961   0.00156  -0.00000  -0.00000  -0.00000  -0.00000   0.00000   0.00000  -0.00000  -0.00000  -0.00016  -0.00003   0.00000   0.00000  -0.00000  -0.00000   0.00009   0.00001  -0.00000  -0.00000  -0.00000  -0.00000  -0.00118  -0.00011  -0.00000  -0.00000   0.00000   0.00000  -0.09133  -0.01571   0.00000   0.00000  -0.04023  -0.00453   0.00000   0.00000  -0.00000   0.00000   0.00000   0.00000  -0.00000  -0.00000  -0.00118  -0.00011  -0.00000  -0.00000  -0.00000  -0.00000  -0.00000  -0.00000   0.00000   0.00000  -0.00867  -0.00135  -0.16039  -0.02488  -0.00548  -0.00094  -0.00000  -0.00000   0.00599   0.00093  -0.00000  -0.00000  -0.00000  -0.00000  -0.00016  -0.00003  -0.00000  -0.00000   0.00000   0.00000  -0.03635  -0.00593  -0.00000  -0.00000   0.00961   0.00156  -0.00000  -0.00000  -0.00000  -0.00000   0.00000   0.00000  -0.00000  -0.00000  -0.00016  -0.00003   0.00000   0.00000  -0.00000  -0.00000   0.00009   0.00001  -0.00000  -0.00000  -0.00000  -0.00000  -0.00118  -0.00011  -0.00000  -0.00000   0.00000   0.00000  -0.09133  -0.01571   0.00000   0.00000  -0.04023  -0.00453   0.00000   0.00000  -0.00000   0.00000   0.00000   0.00000  -0.00000  -0.00000  -0.00118  -0.00011  -0.00000  -0.00000  -0.00000  -0.00000  -0.00000  -0.00000   0.00000   0.00000
-24.58073  -0.01030  -0.00186  -0.19048  -0.03442  -0.00611  -0.00125  -0.00000  -0.00000   0.00682   0.00127  -0.00000  -0.00000  -0.00000  -0.00000  -0.00015  -0.00004  -0.00000  -0.00000   0.00000   0.00000  -0.04045  -0.00796  -0.00000  -0.00000   0.01073   0.00209  -0.00000  -0.00000  -0.00000  -0.00000   0.00000   0.00000  -0.00000  -0.00000  -0.00015  -0.00004   0.00000   0.00000  -0.00000  -0.00000   0.00010   0.00002  -0.00000  -0.00000  -0.00000  -0.00000  -0.00238  -0.00023  -0.00000  -0.00000   0.00000   0.00000  -0.09822  -0.02062   0.00000   0.00000  -0.05828  -0.00745   0.00000   0.00000  -0.00000  -0.00000   0.00000   0.00000  -0.00000  -0.00000  -0.00238  -0.00023  -0.00000  -0.00000  -0.00000  -0.00000  -0.00000  -0.00000   0.00000   0.00000  -0.01030  -0.00186  -0.19048  -0.03442  -0.00611  -0.00125  -0.00000  -0.00000   0.00682   0.00127  -0.00000  -0.00000  -0.00000  -0.00000  -0.00015  -0.00004  -0.00000  -0.00000   0.00000   0.00000  -0.04045  -0.00796  -0.00000  -0.00000   0.01073   0.00209  -0.00000  -0.00000  -0.00000  -0.00000   0.00000   0.00000  -0.00000  -0.00000  -0.00015  -0.00004   0.00000   0.00000  -0.00000  -0.00000   0.00010   0.00002  -0.00000  -0.00000  -0.00000  -0.00000  -0.00238  -0.00023  -0.00000  -0.00000   0.00000   0.00000  -0.09822  -0.02063   0.00000   0.00000  -0.05829  -0.00745   0.00000   0.00000  -0.00000  -0.00000   0.00000   0.00000  -0.00000  -0.00000  -0.00238  -0.00023  -0.00000  -0.00000  -0.00000  -0.00000  -0.00000  -0.00000   0.00000   0.00000
-24.53066  -0.01139  -0.00243  -0.21080  -0.04497  -0.00637  -0.00156  -0.00000  -0.00000   0.00696   0.00162  -0.00000  -0.00000  -0.00000  -0.00000  -0.00010  -0.00004  -0.00000  -0.00000  -0.00000   0.00000  -0.04095  -0.01001  -0.00000  -0.00000   0.01086   0.00264  -0.00000  -0.00000  -0.00000  -0.00000  -0.00000   0.00000  -0.00000  -0.00000  -0.00010  -0.00004   0.00000   0.00000  -0.00000  -0.00000   0.00008   0.00002  -0.00000  -0.00000  -0.00000  -0.00000  -0.00440  -0.00045  -0.00000  -0.00000   0.00000   0.00000  -0.09602  -0.02543   0.00000   0.00000  -0.07639  -0.01128   0.00000   0.00000  -0.00000  -0.00000   0.00000   0.00000  -0.00000  -0.00000  -0.00440  -0.00045  -0.00000  -0.00000  -0.00000  -0.00000  -0.00000  -0.00000   0.00000   0.00000  -0.01139  -0.00243  -0.21081  -0.04497  -0.00637  -0.00156  -0.00000  -0.00000   0.00696   0.00162  -0.00000  -0.00000  -0.00000  -0.00000  -0.00010  -0.00004  -0.00000  -0.00000  -0.00000   0.00000  -0.04095  -0.01001  -0.00000  -0.00000   0.01086   0.00264  -0.00000  -0.00000  -0.00000  -0.00000  -0.00000   0.00000  -0.00000  -0.00000  -0.00010  -0.00004   0.00000   0.00000  -0.00000  -0.00000   0.00008   0.00002  -0.00000  -0.00000  -0.00000  -0.00000  -0.00440  -0.00045  -0.00000  -0.00000   0.00000   0.00000  -0.09601  -0.02543   0.00000   0.00000  -0.07640  -0.01128   0.00000   0.00000  -0.00000  -0.00000   0.00000   0.00000  -0.00000  -0.00000  -0.00440  -0.00045  -0.00000  -0.00000  -0.00000  -0.00000  -0.00000  -0.00000   0.00000   0.00000
-24.48060  -0.01185  -0.00302  -0.21914  -0.05594  -0.00625  -0.00188  -0.00000  -0.00000   0.00635   0.00194  -0.00000  -0.00000  -0.00000  -0.00000  -0.00004  -0.00004  -0.00000  -0.00000  -0.00000   0.00000  -0.03785  -0.01190  -0.00000  -0.00000   0.01001   0.00314  -0.00000  -0.00000  -0.00000  -0.00000  -0.00000   0.00000  -0.00000  -0.00000  -0.00004  -0.00004  -0.00000   0.00000  -0.00000  -0.00000   0.00004   0.00002  -0.00000  -0.00000  -0.00000  -0.00000  -0.00737  -0.00081  -0.00000  -0.00000   0.00000   0.00000  -0.08588  -0.02973   0.00000   0.00000  -0.09073  -0.01582   0.00000   0.00000  -0.00000  -0.00000   0.00000   0.00000  -0.00000  -0.00000  -0.00737  -0.00081  -0.00000  -0.00000  -0.00000  -0.00000  -0.00000  -0.00000  -0.00000   0.00000  -0.01185  -0.00302  -0.21914  -0.05594  -0.00625  -0.00188  -0.00000  -0.00000   0.00635   0.00194  -0.00000  -0.00000  -0.00000  -0.00000  -0.00004  -0.00004  -0.00000  -0.00000  -0.00000   0.00000  -0.03785  -0.01190  -0.00000  -0.00000   0.01001   0.00314  -0.00000  -0.00000  -0.00000  -0.00000  -0.00000   0.00000  -0.00000  -0.00000  -0.00004  -0.00004  -0.00000   0.00000  -0.00000  -0.00000   0.00004   0.00002  -0.00000  -0.00000  -0.00000  -0.00000  -0.00737  -0.00082  -0.00000  -0.00000   0.00000   0.00000  -0.08587  -0.02973   0.00000   0.00000  -0.09074  -0.01582   0.00000   0.00000  -0.00000  -0.00000   0.00000   0.00000  -0.00000  -0.00000  -0.00737  -0.00082  -0.00000  -0.00000  -0.00000  -0.00000  -0.00000  -0.00000  -0.00000   0.00000
-24.43054  -0.01163  -0.00361  -0.21514  -0.06671  -0.00581  -0.00217  -0.00000  -0.00000   0.00510   0.00219  -0.00000  -0.00000  -0.00000  -0.00000  -0.00001  -0.00004  -0.00000  -0.00000  -0.00000   0.00000  -0.03209  -0.01351  -0.00000  -0.00000   0.00840   0.00356  -0.00000  -0.00000  -0.00000  -0.00000  -0.00000   0.00000  -0.00000  -0.00000  -0.00001  -0.00004  -0.00000   0.00000  -0.00000  -0.00000  -0.00002   0.00002  -0.00000  -0.00000  -0.00000  -0.00000  -0.01110  -0.00137  -0.00000  -0.00000   0.00000   0.00000  -0.07084  -0.03328   0.00000   0.00000  -0.09767  -0.02071   0.00000   0.00000  -0.00000  -0.00000   0.00000   0.00000  -0.00000  -0.00000  -0.01110  -0.00137  -0.00000  -0.00000  -0.00000  -0.00000  -0.00000  -0.00000  -0.00000   0.00000  -0.01163  -0.00361  -0.21514  -0.06671  -0.00581  -0.00217  -0.00000  -0.00000   0.00510   0.00219  -0.00000  -0.00000  -0.00000  -0.00000  -0.00001  -0.00004  -0.00000  -0.00000  -0.00000   0.00000  -0.03209  -0.01351  -0.00000  -0.00000   0.00840   0.00356  -0.00000  -0.00000  -0.00000  -0.00000  -0.00000   0.00000  -0.00000  -0.00000  -0.00001  -0.00004  -0.00000   0.00000  -0.00000  -0.00000  -0.00002   0.00002  -0.00000  -0.00000  -0.00000  -0.00000  -0.01111  -0.00137  -0.00000  -0.00000   0.00000   0.00000  -0.07083  -0.03328   0.00000   0.00000  -0.09767  -0.02071   0.00000   0.00000  -0.00000  -0.00000   0.00000   0.00000  -0.00000  -0.00000  -0.01110  -0.00137  -0.00000  -0.00000  -0.00000  -0.00000  -0.00000  -0.00000  -0.00000   0.00000
-24.38048  -0.01080  -0.00415  -0.19976  -0.07671  -0.00511  -0.00242  -0.00000  -0.00000   0.00353   0.00237  -0.00000  -0.00000  -0.00000  -0.00000  -0.00001  -0.00004  -0.00000  -0.00000  -0.00001   0.00000  -0.02500  -0.01476  -0.00000  -0.00000   0.00643   0.00388  -0.00000  -0.00000  -0.00000  -0.00000  -0.00001   0.00000  -0.00000  -0.00000  -0.00001  -0.00004  -0.00000   0.00000  -0.00000  -0.00000  -0.00009   0.00002  -0.00000  -0.00000  -0.00000  -0.00000  -0.01497  -0.00212  -0.00000  -0.00000   0.00000   0.00000  -0.05436  -0.03600  -0.00000   0.00000  -0.09520  -0.02547  -0.00000   0.00000  -0.00000  -0.00000   0.00000   0.00000  -0.00000  -0.00000  -0.01497  -0.00212  -0.00000  -0.00000  -0.00000  -0.00000  -0.00000  -0.00000  -0.00000   0.00000  -0.01080  -0.00415  -0.19976  -0.07671  -0.00511  -0.00242  -0.00000  -0.00000   0.00353   0.00237  -0.00000  -0.00000  -0.00000  -0.00000  -0.00001  -0.00004  -0.00000  -0.00000  -0.00001   0.00000  -0.02500  -0.01476  -0.00000  -0.00000   0.00643   0.00388  -0.00000  -0.00000  -0.00000  -0.00000  -0.00001   0.00000  -0.00000  -0.00000  -0.00001  -0.00004  -0.00000   0.00000  -0.00000  -0.00000  -0.00009   0.00002  -0.00000  -0.00000  -0.00000  -0.00000  -0.01497  -0.00212  -0.00000  -0.00000   0.00000   0.00000  -0.05435  -0.03600  -0.00000   0.00000  -0.09520  -0.02547  -0.00000   0.00000  -0.00000  -0.00000   0.00000   0.00000  -0.00000  -0.00000  -0.01497  -0.00212  -0.00000  -0.00000  -0.00000  -0.00000  -0.00000  -0.00000  -0.00000   0.00000
-24.33041  -0.00946  -0.00462  -0.17496  -0.08547  -0.00424  -0.00264  -0.00000  -0.00000   0.00200   0.00247  -0.00000  -0.00000  -0.00000  -0.00000  -0.00004  -0.00005  -0.00000  -0.00000  -0.00000  -0.00000  -0.01794  -0.01566   0.00000  -0.00000   0.00448   0.00410   0.00000  -0.00000  -0.00000  -0.00000  -0.00000  -0.00000  -0.00000  -0.00000  -0.00004  -0.00005  -0.00000   0.00000  -0.00000  -0.00000  -0.00014   0.00001  -0.00000  -0.00000  -0.00000  -0.00000  -0.01800  -0.00302  -0.00000  -0.00000   0.00000   0.00000  -0.03912  -0.03796  -0.00000   0.00000  -0.08393  -0.02967  -0.00000   0.00000  -0.00000  -0.00000   0.00000   0.00000  -0.00000  -0.00000  -0.01800  -0.00302  -0.00000  -0.00000  -0.00000  -0.00000  -0.00000  -0.00000  -0.00000   0.00000  -0.00946  -0.00462  -0.17496  -0.08547  -0.00424  -0.00264  -0.00000  -0.00000   0.00200   0.00247  -0.00000  -0.00000  -0.00000  -0.00000  -0.00004  -0.00005  -0.00000  -0.00000  -0.00000  -0.00000  -0.01794  -0.01566   0.00000  -0.00000   0.00448   0.00410   0.00000  -0.00000  -0.00000  -0.00000  -0.00000  -0.00000  -0.00000  -0.00000  -0.00004  -0.00005  -0.00000   0.00000  -0.00000  -0.00000  -0.00014   0.00001  -0.00000  -0.00000  -0.00000  -0.00000  -0.01800  -0.00302  -0.00000  -0.00000   0.00000   0.00000  -0.03912  -0.03796  -0.00000   0.00000  -0.08392  -0.02968  -0.00000   0.00000  -0.00000  -0.00000   0.00000   0.00000  -0.00000  -0.00000  -0.01800  -0.00302  -0.00000  -0.00000  -0.00000  -0.00000  -0.00000  -0.00000  -0.00000   0.00000
-24.28035  -0.00777  -0.00501  -0.14372  -0.09267  -0.00329  -0.00280  -0.00000  -0.00000   0.00079   0.00251  -0.00000  -0.00000  -0.00000  -0.00000  -0.00008  -0.00005  -0.00000  -0.00000  -0.00000  -0.00000  -0.01186  -0.01625   0.00000  -0.00000   0.00283   0.00425   0.00000  -0.00000  -0.00000  -0.00000  -0.00000  -0.00000  -0.00000  -0.00000  -0.00008  -0.00005  -0.00000   0.00000  -0.00000  -0.00000  -0.00016   0.00000  -0.00000  -0.00000  -0.00000  -0.00000  -0.01925  -0.00399  -0.00000  -0.00000   0.00000   0.00000  -0.02655  -0.03929  -0.00000   0.00000  -0.06681  -0.03302  -0.00000   0.00000  -0.00000  -0.00000   0.00000   0.00000  -0.00000  -0.00000  -0.01925  -0.00398  -0.00000  -0.00000  -0.00000  -0.00000  -0.00000  -0.00000  -0.00000   0.00000  -0.00777  -0.00501  -0.14372  -0.09267  -0.00329  -0.00280  -0.00000  -0.00000   0.00079   0.00251  -0.00000  -0.00000  -0.00000  -0.00000  -0.00008  -0.00005  -0.00000  -0.00000  -0.00000  -0.00000  -0.01186  -0.01625   0.00000  -0.00000   0.00283   0.00425   0.00000  -0.00000  -0.00000  -0.00000  -0.00000  -0.00000  -0.00000  -0.00000  -0.00008  -0.00005  -0.00000   0.00000  -0.00000  -0.00000  -0.00016   0.00000  -0.00000  -0.00000  -0.00000  -0.00000  -0.01925  -0.00399  -0.00000  -0.00000   0.00000   0.00000  -0.02655  -0.03929  -0.00000   0.00000  -0.06681  -0.03302  -0.00000   0.00000  -0.00000  -0.00000   0.00000   0.00000  -0.00000  -0.00000  -0.01925  -0.00399  -0.00000  -0.00000  -0.00000  -0.00000  -0.00000  -0.00000  -0.00000   0.00000
-24.23029  -0.00594  -0.00531  -0.10991  -0.09817  -0.00237  -0.00292  -0.00000  -0.00000   0.00003   0.00251  -0.00000  -0.00000  -0.00000  -0.00000  -0.00012  -0.00006   0.00000  -0.00000  -0.00000  -0.00000  -0.00722  -0.01661   0.00000  -0.00000   0.00162   0.00433   0.00000  -0.00000  -0.00000  -0.00000  -0.00000  -0.00000   0.00000  -0.00000  -0.00012  -0.00006  -0.00000  -0.00000  -0.00000  -0.00000  -0.00015  -0.00000  -0.00000  -0.00000  -0.00000  -0.00000  -0.01829  -0.00490  -0.00000  -0.00000  -0.00000   0.00000  -0.01703  -0.04014  -0.00000   0.00000  -0.04797  -0.03542  -0.00000   0.00000  -0.00000  -0.00000  -0.00000   0.00000  -0.00000  -0.00000  -0.01829  -0.00490  -0.00000  -0.00000  -0.00000  -0.00000  -0.00000  -0.00000  -0.00000   0.00000  -0.00594  -0.00531  -0.10990  -0.09817  -0.00237  -0.00292  -0.00000  -0.00000   0.00003   0.00251  -0.00000  -0.00000  -0.00000  -0.00000  -0.00012  -0.00006   0.00000  -0.00000  -0.00000  -0.00000  -0.00722  -0.01661   0.00000  -0.00000   0.00162   0.00433   0.00000  -0.00000  -0.00000  -0.00000  -0.00000  -0.00000   0.00000  -0.00000  -0.00012  -0.00006  -0.00000  -0.00000  -0.00000  -0.00000  -0.00015  -0.00000  -0.00000  -0.00000  -0.00000  -0.00000  -0.01829  -0.00490  -0.00000  -0.00000  -0.00000   0.00000  -0.01703  -0.04014  -0.00000   0.00000  -0.04796  -0.03542  -0.00000   0.00000  -0.00000  -0.00000  -0.00000   0.00000  -0.00000  -0.00000  -0.01829  -0.00490  -0.00000  -0.00000  -0.00000  -0.00000   0.00000  -0.00000  -0.00000   0.00000
-24.18023  -0.00420  -0.00552  -0.07764  -0.10206  -0.00157  -0.00300  -0.00000  -0.00000  -0.00032   0.00250  -0.00000  -0.00000  -0.00000  -0.00000  -0.00013  -0.00006   0.00000  -0.00000  -0.00000  -0.00000  -0.00404  -0.01681   0.00000  -0.00000   0.00084   0.00437   0.00000  -0.00000  -0.00000  -0.00000  -0.00000  -0.00000   0.00000  -0.00000  -0.00013  -0.00006  -0.00000  -0.00000  -0.00000  -0.00000  -0.00012  -0.00001  -0.00000  -0.00000  -0.00000  -0.00000  -0.01542  -0.00567  -0.00000  -0.00000  -0.00000   0.00000  -0.01030  -0.04065  -0.00000   0.00000  -0.03103  -0.03697  -0.00000   0.00000  -0.00000  -0.00000  -0.00000   0.00000  -0.00000  -0.00000  -0.01542  -0.00567   0.00000  -0.00000  -0.00000  -0.00000   0.00000  -0.00000  -0.00000   0.00000  -0.00420  -0.00552  -0.07763  -0.10206  -0.00157  -0.00300  -0.00000  -0.00000  -0.00032   0.00250  -0.00000  -0.00000  -0.00000  -0.00000  -0.00013  -0.00006   0.00000  -0.00000  -0.00000  -0.00000  -0.00404  -0.01681   0.00000  -0.00000   0.00084   0.00437   0.00000  -0.00000  -0.00000  -0.00000  -0.00000  -0.00000   0.00000  -0.00000  -0.00013  -0.00006  -0.00000  -0.00000  -0.00000  -0.00000  -0.00012  -0.00001  -0.00000  -0.00000  -0.00000  -0.00000  -0.01542  -0.00567  -0.00000  -0.00000  -0.00000   0.00000  -0.01030  -0.04065  -0.00000   0.00000  -0.03103  -0.03697  -0.00000   0.00000  -0.00000  -0.00000  -0.00000   0.00000  -0.00000  -0.00000  -0.01542  -0.00567   0.00000  -0.00000  -0.00000  -0.00000   0.00000  -0.00000  -0.00000   0.00000