ESCALE ; pCOHP file generated by LOBSTER. Energy is shifted such that the Fermi level lies at 0 eV.
        75          2        701  -2.58633e+01   9.18680e+00  -8.27501e-01 
Average
No.1:Nb24->O17(1.7259432489106434)
No.1:Nb24[5s]->O17[2s](1.7259432489106434)
No.1:Nb24[5s]->O17[2p_y](1.7259432489106434)
No.1:Nb24[5s]->O17[2p_z](1.7259432489106434)
No.1:Nb24[5s]->O17[2p_x](1.7259432489106434)
No.1:Nb24[4p_y]->O17[2s](1.7259432489106434)
No.1:Nb24[4p_y]->O17[2p_y](1.7259432489106434)
No.1:Nb24[4p_y]->O17[2p_z](1.7259432489106434)
No.1:Nb24[4p_y]->O17[2p_x](1.7259432489106434)
No.1:Nb24[4p_z]->O17[2s](1.7259432489106434)
No.1:Nb24[4p_z]->O17[2p_y](1.7259432489106434)
No.1:Nb24[4p_z]->O17[2p_z](1.7259432489106434)
No.1:Nb24[4p_z]->O17[2p_x](1.7259432489106434)
No.1:Nb24[4p_x]->O17[2s](1.7259432489106434)
No.1:Nb24[4p_x]->O17[2p_y](1.7259432489106434)
No.1:Nb24[4p_x]->O17[2p_z](1.7259432489106434)
No.1:Nb24[4p_x]->O17[2p_x](1.7259432489106434)
No.1:Nb24[4d_xy]->O17[2s](1.7259432489106434)
No.1:Nb24[4d_xy]->O17[2p_y](1.7259432489106434)
No.1:Nb24[4d_xy]->O17[2p_z](1.7259432489106434)
No.1:Nb24[4d_xy]->O17[2p_x](1.7259432489106434)
No.1:Nb24[4d_yz]->O17[2s](1.7259432489106434)
No.1:Nb24[4d_yz]->O17[2p_y](1.7259432489106434)
No.1:Nb24[4d_yz]->O17[2p_z](1.7259432489106434)
No.1:Nb24[4d_yz]->O17[2p_x](1.7259432489106434)
No.1:Nb24[4d_z^2]->O17[2s](1.7259432489106434)
No.1:Nb24[4d_z^2]->O17[2p_y](1.7259432489106434)
No.1:Nb24[4d_z^2]->O17[2p_z](1.7259432489106434)
No.1:Nb24[4d_z^2]->O17[2p_x](1.7259432489106434)
No.1:Nb24[4d_xz]->O17[2s](1.7259432489106434)
No.1:Nb24[4d_xz]->O17[2p_y](1.7259432489106434)
No.1:Nb24[4d_xz]->O17[2p_z](1.7259432489106434)
No.1:Nb24[4d_xz]->O17[2p_x](1.7259432489106434)
No.1:Nb24[4d_x^2-y^2]->O17[2s](1.7259432489106434)
No.1:Nb24[4d_x^2-y^2]->O17[2p_y](1.7259432489106434)
No.1:Nb24[4d_x^2-y^2]->O17[2p_z](1.7259432489106434)
No.1:Nb24[4d_x^2-y^2]->O17[2p_x](1.7259432489106434)
No.2:Nb24->O14(2.1195679129016409)
No.2:Nb24[5s]->O14[2s](2.1195679129016409)
No.2:Nb24[5s]->O14[2p_y](2.1195679129016409)
No.2:Nb24[5s]->O14[2p_z](2.1195679129016409)
No.2:Nb24[5s]->O14[2p_x](2.1195679129016409)
No.2:Nb24[4p_y]->O14[2s](2.1195679129016409)
No.2:Nb24[4p_y]->O14[2p_y](2.1195679129016409)
No.2:Nb24[4p_y]->O14[2p_z](2.1195679129016409)
No.2:Nb24[4p_y]->O14[2p_x](2.1195679129016409)
No.2:Nb24[4p_z]->O14[2s](2.1195679129016409)
No.2:Nb24[4p_z]->O14[2p_y](2.1195679129016409)
No.2:Nb24[4p_z]->O14[2p_z](2.1195679129016409)
No.2:Nb24[4p_z]->O14[2p_x](2.1195679129016409)
No.2:Nb24[4p_x]->O14[2s](2.1195679129016409)
No.2:Nb24[4p_x]->O14[2p_y](2.1195679129016409)
No.2:Nb24[4p_x]->O14[2p_z](2.1195679129016409)
No.2:Nb24[4p_x]->O14[2p_x](2.1195679129016409)
No.2:Nb24[4d_xy]->O14[2s](2.1195679129016409)
No.2:Nb24[4d_xy]->O14[2p_y](2.1195679129016409)
No.2:Nb24[4d_xy]->O14[2p_z](2.1195679129016409)
No.2:Nb24[4d_xy]->O14[2p_x](2.1195679129016409)
No.2:Nb24[4d_yz]->O14[2s](2.1195679129016409)
No.2:Nb24[4d_yz]->O14[2p_y](2.1195679129016409)
No.2:Nb24[4d_yz]->O14[2p_z](2.1195679129016409)
No.2:Nb24[4d_yz]->O14[2p_x](2.1195679129016409)
No.2:Nb24[4d_z^2]->O14[2s](2.1195679129016409)
No.2:Nb24[4d_z^2]->O14[2p_y](2.1195679129016409)
No.2:Nb24[4d_z^2]->O14[2p_z](2.1195679129016409)
No.2:Nb24[4d_z^2]->O14[2p_x](2.1195679129016409)
No.2:Nb24[4d_xz]->O14[2s](2.1195679129016409)
No.2:Nb24[4d_xz]->O14[2p_y](2.1195679129016409)
No.2:Nb24[4d_xz]->O14[2p_z](2.1195679129016409)
No.2:Nb24[4d_xz]->O14[2p_x](2.1195679129016409)
No.2:Nb24[4d_x^2-y^2]->O14[2s](2.1195679129016409)
No.2:Nb24[4d_x^2-y^2]->O14[2p_y](2.1195679129016409)
No.2:Nb24[4d_x^2-y^2]->O14[2p_z](2.1195679129016409)
No.2:Nb24[4d_x^2-y^2]->O14[2p_x](2.1195679129016409)
-25.03577   0.00000  -0.03768   0.00000  -1.19217   0.00000  -0.00784   0.00000   0.00000   0.00000  -0.00126   0.00000   0.00000   0.00000  -0.00000   0.00000  -0.04165   0.00000  -0.00000   0.00000  -0.00000   0.00000  -0.45867   0.00000  -0.00000   0.00000  -0.57743   0.00000  -0.00000   0.00000  -0.00000   0.00000  -0.00000   0.00000  -0.00000   0.00000  -0.04165   0.00000   0.00000   0.00000   0.00000   0.00000  -0.00001   0.00000   0.00000   0.00000  -0.00000   0.00000   0.00029   0.00000  -0.00000   0.00000   0.00000   0.00000  -0.04135   0.00000   0.00000   0.00000  -0.02289   0.00000   0.00000   0.00000  -0.00000   0.00000   0.00000   0.00000   0.00000   0.00000   0.00029   0.00000  -0.00000   0.00000  -0.00000   0.00000  -0.00000   0.00000   0.00000   0.00000  -0.20206   0.00000  -0.00739   0.00000   0.00001   0.00000  -0.00014   0.00000   0.00051   0.00000  -0.00005   0.00000  -0.00503   0.00000  -0.00000   0.00000  -0.00002   0.00000  -0.00163   0.00000   0.00000   0.00000  -0.00301   0.00000  -0.00592   0.00000  -0.05032   0.00000  -0.00003   0.00000  -0.00517   0.00000  -0.11473   0.00000   0.00010   0.00000  -0.00210   0.00000   0.00000   0.00000   0.00002   0.00000   0.00000   0.00000  -0.00005   0.00000   0.00000   0.00000  -0.00000   0.00000  -0.00267   0.00000  -0.00002   0.00000   0.00018   0.00000  -0.00057   0.00000  -0.00062   0.00000  -0.00000   0.00000  -0.00010   0.00000  -0.00008   0.00000  -0.00441   0.00000  -0.00003   0.00000  -0.00014   0.00000   0.00133   0.00000  -0.03769   0.00000  -1.19243   0.00000  -0.00782   0.00000   0.00000   0.00000  -0.00125   0.00000   0.00000   0.00000  -0.00000   0.00000  -0.04166   0.00000  -0.00000   0.00000  -0.00000   0.00000  -0.45886   0.00000  -0.00000   0.00000  -0.57750   0.00000   0.00000   0.00000  -0.00000   0.00000  -0.00000   0.00000  -0.00000   0.00000  -0.04166   0.00000   0.00000   0.00000   0.00000   0.00000  -0.00001   0.00000   0.00000   0.00000  -0.00000   0.00000   0.00029   0.00000   0.00000   0.00000   0.00000   0.00000  -0.04136   0.00000   0.00000   0.00000  -0.02289   0.00000   0.00000   0.00000  -0.00000   0.00000   0.00000   0.00000  -0.00000   0.00000   0.00029   0.00000  -0.00000   0.00000   0.00000   0.00000  -0.00000   0.00000  -0.00000   0.00000  -0.20207   0.00000  -0.00737   0.00000   0.00002   0.00000  -0.00014   0.00000   0.00051   0.00000  -0.00005   0.00000  -0.00502   0.00000  -0.00000   0.00000  -0.00002   0.00000  -0.00163   0.00000   0.00000   0.00000  -0.00300   0.00000  -0.00592   0.00000  -0.05035   0.00000  -0.00003   0.00000  -0.00517   0.00000  -0.11476   0.00000   0.00010   0.00000  -0.00210   0.00000   0.00001   0.00000   0.00002   0.00000   0.00000   0.00000  -0.00005   0.00000   0.00000   0.00000  -0.00000   0.00000  -0.00267   0.00000  -0.00002   0.00000   0.00018   0.00000  -0.00057   0.00000  -0.00062   0.00000  -0.00000   0.00000  -0.00010   0.00000  -0.00009   0.00000  -0.00441   0.00000  -0.00003   0.00000  -0.00014   0.00000   0.00133
-24.98569   0.00000  -0.03768   0.00000  -1.19217   0.00000  -0.00784   0.00000   0.00000   0.00000  -0.00126   0.00000   0.00000   0.00000  -0.00000   0.00000  -0.04165   0.00000  -0.00000   0.00000  -0.00000   0.00000  -0.45867   0.00000  -0.00000   0.00000  -0.57743   0.00000  -0.00000   0.00000  -0.00000   0.00000  -0.00000   0.00000  -0.00000   0.00000  -0.04165   0.00000   0.00000   0.00000   0.00000   0.00000  -0.00001   0.00000   0.00000   0.00000  -0.00000   0.00000   0.00029   0.00000  -0.00000   0.00000   0.00000   0.00000  -0.04135   0.00000   0.00000   0.00000  -0.02289   0.00000   0.00000   0.00000  -0.00000   0.00000   0.00000   0.00000   0.00000   0.00000   0.00029   0.00000  -0.00000   0.00000  -0.00000   0.00000  -0.00000   0.00000   0.00000   0.00000  -0.20206   0.00000  -0.00739   0.00000   0.00001   0.00000  -0.00014   0.00000   0.00051   0.00000  -0.00005   0.00000  -0.00503   0.00000  -0.00000   0.00000  -0.00002   0.00000  -0.00163   0.00000   0.00000   0.00000  -0.00301   0.00000  -0.00592   0.00000  -0.05032   0.00000  -0.00003   0.00000  -0.00517   0.00000  -0.11473   0.00000   0.00010   0.00000  -0.00210   0.00000   0.00000   0.00000   0.00002   0.00000   0.00000   0.00000  -0.00005   0.00000   0.00000   0.00000  -0.00000   0.00000  -0.00267   0.00000  -0.00002   0.00000   0.00018   0.00000  -0.00057   0.00000  -0.00062   0.00000  -0.00000   0.00000  -0.00010   0.00000  -0.00008   0.00000  -0.00441   0.00000  -0.00003   0.00000  -0.00014   0.00000   0.00133   0.00000  -0.03769   0.00000  -1.19243   0.00000  -0.00782   0.00000   0.00000   0.00000  -0.00125   0.00000   0.00000   0.00000  -0.00000   0.00000  -0.04166   0.00000  -0.00000   0.00000  -0.00000   0.00000  -0.45886   0.00000  -0.00000   0.00000  -0.57750   0.00000   0.00000   0.00000  -0.00000   0.00000  -0.00000   0.00000  -0.00000   0.00000  -0.04166   0.00000   0.00000   0.00000   0.00000   0.00000  -0.00001   0.00000   0.00000   0.00000  -0.00000   0.00000   0.00029   0.00000   0.00000   0.00000   0.00000   0.00000  -0.04136   0.00000   0.00000   0.00000  -0.02289   0.00000   0.00000   0.00000  -0.00000   0.00000   0.00000   0.00000  -0.00000   0.00000   0.00029   0.00000  -0.00000   0.00000   0.00000   0.00000  -0.00000   0.00000  -0.00000   0.00000  -0.20207   0.00000  -0.00737   0.00000   0.00002   0.00000  -0.00014   0.00000   0.00051   0.00000  -0.00005   0.00000  -0.00502   0.00000  -0.00000   0.00000  -0.00002   0.00000  -0.00163   0.00000   0.00000   0.00000  -0.00300   0.00000  -0.00592   0.00000  -0.05035   0.00000  -0.00003   0.00000  -0.00517   0.00000  -0.11476   0.00000   0.00010   0.00000  -0.00210   0.00000   0.00001   0.00000   0.00002   0.00000   0.00000   0.00000  -0.00005   0.00000   0.00000   0.00000  -0.00000   0.00000  -0.00267   0.00000  -0.00002   0.00000   0.00018   0.00000  -0.00057   0.00000  -0.00062   0.00000  -0.00000   0.00000  -0.00010   0.00000  -0.00009   0.00000  -0.00441   0.00000  -0.00003   0.00000  -0.00014   0.00000   0.00133
-24.93562   0.00000  -0.03768   0.00000  -1.19217   0.00000  -0.00784   0.00000   0.00000   0.00000  -0.00126   0.00000   0.00000   0.00000  -0.00000   0.00000  -0.04165   0.00000  -0.00000   0.00000  -0.00000   0.00000  -0.45867   0.00000  -0.00000   0.00000  -0.57743   0.00000  -0.00000   0.00000  -0.00000   0.00000  -0.00000   0.00000  -0.00000   0.00000  -0.04165   0.00000   0.00000   0.00000   0.00000   0.00000  -0.00001   0.00000   0.00000   0.00000  -0.00000   0.00000   0.00029   0.00000  -0.00000   0.00000   0.00000   0.00000  -0.04135   0.00000   0.00000   0.00000  -0.02289   0.00000   0.00000   0.00000  -0.00000   0.00000   0.00000   0.00000   0.00000   0.00000   0.00029   0.00000  -0.00000   0.00000  -0.00000   0.00000  -0.00000   0.00000   0.00000   0.00000  -0.20206   0.00000  -0.00739   0.00000   0.00001   0.00000  -0.00014   0.00000   0.00051   0.00000  -0.00005   0.00000  -0.00503   0.00000  -0.00000   0.00000  -0.00002   0.00000  -0.00163   0.00000   0.00000   0.00000  -0.00301   0.00000  -0.00592   0.00000  -0.05032   0.00000  -0.00003   0.00000  -0.00517   0.00000  -0.11473   0.00000   0.00010   0.00000  -0.00210   0.00000   0.00000   0.00000   0.00002   0.00000   0.00000   0.00000  -0.00005   0.00000   0.00000   0.00000  -0.00000   0.00000  -0.00267   0.00000  -0.00002   0.00000   0.00018   0.00000  -0.00057   0.00000  -0.00062   0.00000  -0.00000   0.00000  -0.00010   0.00000  -0.00008   0.00000  -0.00441   0.00000  -0.00003   0.00000  -0.00014   0.00000   0.00133   0.00000  -0.03769   0.00000  -1.19243   0.00000  -0.00782   0.00000   0.00000   0.00000  -0.00125   0.00000   0.00000   0.00000  -0.00000   0.00000  -0.04166   0.00000  -0.00000   0.00000  -0.00000   0.00000  -0.45886   0.00000  -0.00000   0.00000  -0.57750   0.00000   0.00000   0.00000  -0.00000   0.00000  -0.00000   0.00000  -0.00000   0.00000  -0.04166   0.00000   0.00000   0.00000   0.00000   0.00000  -0.00001   0.00000   0.00000   0.00000  -0.00000   0.00000   0.00029   0.00000   0.00000   0.00000   0.00000   0.00000  -0.04136   0.00000   0.00000   0.00000  -0.02289   0.00000   0.00000   0.00000  -0.00000   0.00000   0.00000   0.00000  -0.00000   0.00000   0.00029   0.00000  -0.00000   0.00000   0.00000   0.00000  -0.00000   0.00000  -0.00000   0.00000  -0.20207   0.00000  -0.00737   0.00000   0.00002   0.00000  -0.00014   0.00000   0.00051   0.00000  -0.00005   0.00000  -0.00502   0.00000  -0.00000   0.00000  -0.00002   0.00000  -0.00163   0.00000   0.00000   0.00000  -0.00300   0.00000  -0.00592   0.00000  -0.05035   0.00000  -0.00003   0.00000  -0.00517   0.00000  -0.11476   0.00000   0.00010   0.00000  -0.00210   0.00000   0.00001   0.00000   0.00002   0.00000   0.00000   0.00000  -0.00005   0.00000   0.00000   0.00000  -0.00000   0.00000  -0.00267   0.00000  -0.00002   0.00000   0.00018   0.00000  -0.00057   0.00000  -0.00062   0.00000  -0.00000   0.00000  -0.00010   0.00000  -0.00009   0.00000  -0.00441   0.00000  -0.00003   0.00000  -0.00014   0.00000   0.00133
-24.88555   0.00000  -0.03768   0.00000  -1.19217   0.00000  -0.00784   0.00000   0.00000   0.00000  -0.00126   0.00000   0.00000   0.00000  -0.00000   0.00000  -0.04165   0.00000  -0.00000   0.00000  -0.00000   0.00000  -0.45867   0.00000  -0.00000   0.00000  -0.57743   0.00000  -0.00000   0.00000  -0.00000   0.00000  -0.00000   0.00000  -0.00000   0.00000  -0.04165   0.00000   0.00000   0.00000   0.00000   0.00000  -0.00001   0.00000   0.00000   0.00000  -0.00000   0.00000   0.00029   0.00000  -0.00000   0.00000   0.00000   0.00000  -0.04135   0.00000   0.00000   0.00000  -0.02289   0.00000   0.00000   0.00000  -0.00000   0.00000   0.00000   0.00000   0.00000   0.00000   0.00029   0.00000  -0.00000   0.00000  -0.00000   0.00000  -0.00000   0.00000   0.00000   0.00000  -0.20206   0.00000  -0.00739   0.00000   0.00001   0.00000  -0.00014   0.00000   0.00051   0.00000  -0.00005   0.00000  -0.00503   0.00000  -0.00000   0.00000  -0.00002   0.00000  -0.00163   0.00000   0.00000   0.00000  -0.00301   0.00000  -0.00592   0.00000  -0.05032   0.00000  -0.00003   0.00000  -0.00517   0.00000  -0.11473   0.00000   0.00010   0.00000  -0.00210   0.00000   0.00000   0.00000   0.00002   0.00000   0.00000   0.00000  -0.00005   0.00000   0.00000   0.00000  -0.00000   0.00000  -0.00267   0.00000  -0.00002   0.00000   0.00018   0.00000  -0.00057   0.00000  -0.00062   0.00000  -0.00000   0.00000  -0.00010   0.00000  -0.00008   0.00000  -0.00441   0.00000  -0.00003   0.00000  -0.00014   0.00000   0.00133   0.00000  -0.03769   0.00000  -1.19243   0.00000  -0.00782   0.00000   0.00000   0.00000  -0.00125   0.00000   0.00000   0.00000  -0.00000   0.00000  -0.04166   0.00000  -0.00000   0.00000  -0.00000   0.00000  -0.45886   0.00000  -0.00000   0.00000  -0.57750   0.00000   0.00000   0.00000  -0.00000   0.00000  -0.00000   0.00000  -0.00000   0.00000  -0.04166   0.00000   0.00000   0.00000   0.00000   0.00000  -0.00001   0.00000   0.00000   0.00000  -0.00000   0.00000   0.00029   0.00000   0.00000   0.00000   0.00000   0.00000  -0.04136   0.00000   0.00000   0.00000  -0.02289   0.00000   0.00000   0.00000  -0.00000   0.00000   0.00000   0.00000  -0.00000   0.00000   0.00029   0.00000  -0.00000   0.00000   0.00000   0.00000  -0.00000   0.00000  -0.00000   0.00000  -0.20207   0.00000  -0.00737   0.00000   0.00002   0.00000  -0.00014   0.00000   0.00051   0.00000  -0.00005   0.00000  -0.00502   0.00000  -0.00000   0.00000  -0.00002   0.00000  -0.00163   0.00000   0.00000   0.00000  -0.00300   0.00000  -0.00592   0.00000  -0.05035   0.00000  -0.00003   0.00000  -0.00517   0.00000  -0.11476   0.00000   0.00010   0.00000  -0.00210   0.00000   0.00001   0.00000   0.00002   0.00000   0.00000   0.00000  -0.00005   0.00000   0.00000   0.00000  -0.00000   0.00000  -0.00267   0.00000  -0.00002   0.00000   0.00018   0.00000  -0.00057   0.00000  -0.00062   0.00000  -0.00000   0.00000  -0.00010   0.00000  -0.00009   0.00000  -0.00441   0.00000  -0.00003   0.00000  -0.00014   0.00000   0.00133
-24.83548   0.00000  -0.03768   0.00000  -1.19217   0.00000  -0.00784   0.00000   0.00000   0.00000  -0.00126   0.00000   0.00000   0.00000  -0.00000   0.00000  -0.04165   0.00000  -0.00000   0.00000  -0.00000   0.00000  -0.45867   0.00000  -0.00000   0.00000  -0.57743   0.00000  -0.00000   0.00000  -0.00000   0.00000  -0.00000   0.00000  -0.00000   0.00000  -0.04165   0.00000   0.00000   0.00000   0.00000   0.00000  -0.00001   0.00000   0.00000   0.00000  -0.00000   0.00000   0.00029   0.00000  -0.00000   0.00000   0.00000   0.00000  -0.04135   0.00000   0.00000   0.00000  -0.02289   0.00000   0.00000   0.00000  -0.00000   0.00000   0.00000   0.00000   0.00000   0.00000   0.00029   0.00000  -0.00000   0.00000  -0.00000   0.00000  -0.00000   0.00000   0.00000   0.00000  -0.20206   0.00000  -0.00739   0.00000   0.00001   0.00000  -0.00014   0.00000   0.00051   0.00000  -0.00005   0.00000  -0.00503   0.00000  -0.00000   0.00000  -0.00002   0.00000  -0.00163   0.00000   0.00000   0.00000  -0.00301   0.00000  -0.00592   0.00000  -0.05032   0.00000  -0.00003   0.00000  -0.00517   0.00000  -0.11473   0.00000   0.00010   0.00000  -0.00210   0.00000   0.00000   0.00000   0.00002   0.00000   0.00000   0.00000  -0.00005   0.00000   0.00000   0.00000  -0.00000   0.00000  -0.00267   0.00000  -0.00002   0.00000   0.00018   0.00000  -0.00057   0.00000  -0.00062   0.00000  -0.00000   0.00000  -0.00010   0.00000  -0.00008   0.00000  -0.00441   0.00000  -0.00003   0.00000  -0.00014   0.00000   0.00133   0.00000  -0.03769   0.00000  -1.19243   0.00000  -0.00782   0.00000   0.00000   0.00000  -0.00125   0.00000   0.00000   0.00000  -0.00000   0.00000  -0.04166   0.00000  -0.00000   0.00000  -0.00000   0.00000  -0.45886   0.00000  -0.00000   0.00000  -0.57750   0.00000   0.00000   0.00000  -0.00000   0.00000  -0.00000   0.00000  -0.00000   0.00000  -0.04166   0.00000   0.00000   0.00000   0.00000   0.00000  -0.00001   0.00000   0.00000   0.00000  -0.00000   0.00000   0.00029   0.00000   0.00000   0.00000   0.00000   0.00000  -0.04136   0.00000   0.00000   0.00000  -0.02289   0.00000   0.00000   0.00000  -0.00000   0.00000   0.00000   0.00000  -0.00000   0.00000   0.00029   0.00000  -0.00000   0.00000   0.00000   0.00000  -0.00000   0.00000  -0.00000   0.00000  -0.20207   0.00000  -0.00737   0.00000   0.00002   0.00000  -0.00014   0.00000   0.00051   0.00000  -0.00005   0.00000  -0.00502   0.00000  -0.00000   0.00000  -0.00002   0.00000  -0.00163   0.00000   0.00000   0.00000  -0.00300   0.00000  -0.00592   0.00000  -0.05035   0.00000  -0.00003   0.00000  -0.00517   0.00000  -0.11476   0.00000   0.00010   0.00000  -0.00210   0.00000   0.00001   0.00000   0.00002   0.00000   0.00000   0.00000  -0.00005   0.00000   0.00000   0.00000  -0.00000   0.00000  -0.00267   0.00000  -0.00002   0.00000   0.00018   0.00000  -0.00057   0.00000  -0.00062   0.00000  -0.00000   0.00000  -0.00010   0.00000  -0.00009   0.00000  -0.00441   0.00000  -0.00003   0.00000  -0.00014   0.00000   0.00133
-24.78541   0.00000  -0.03768   0.00000  -1.19217   0.00000  -0.00784   0.00000   0.00000   0.00000  -0.00126   0.00000   0.00000   0.00000  -0.00000   0.00000  -0.04165   0.00000  -0.00000   0.00000  -0.00000   0.00000  -0.45867   0.00000  -0.00000   0.00000  -0.57743   0.00000  -0.00000   0.00000  -0.00000   0.00000  -0.00000   0.00000  -0.00000   0.00000  -0.04165   0.00000   0.00000   0.00000   0.00000   0.00000  -0.00001   0.00000   0.00000   0.00000  -0.00000   0.00000   0.00029   0.00000  -0.00000   0.00000   0.00000   0.00000  -0.04135   0.00000   0.00000   0.00000  -0.02289   0.00000   0.00000   0.00000  -0.00000   0.00000   0.00000   0.00000   0.00000   0.00000   0.00029   0.00000  -0.00000   0.00000  -0.00000   0.00000  -0.00000   0.00000   0.00000   0.00000  -0.20206   0.00000  -0.00739   0.00000   0.00001   0.00000  -0.00014   0.00000   0.00051   0.00000  -0.00005   0.00000  -0.00503   0.00000  -0.00000   0.00000  -0.00002   0.00000  -0.00163   0.00000   0.00000   0.00000  -0.00301   0.00000  -0.00592   0.00000  -0.05032   0.00000  -0.00003   0.00000  -0.00517   0.00000  -0.11473   0.00000   0.00010   0.00000  -0.00210   0.00000   0.00000   0.00000   0.00002   0.00000   0.00000   0.00000  -0.00005   0.00000   0.00000   0.00000  -0.00000   0.00000  -0.00267   0.00000  -0.00002   0.00000   0.00018   0.00000  -0.00057   0.00000  -0.00062   0.00000  -0.00000   0.00000  -0.00010   0.00000  -0.00008   0.00000  -0.00441   0.00000  -0.00003   0.00000  -0.00014   0.00000   0.00133   0.00000  -0.03769   0.00000  -1.19243   0.00000  -0.00782   0.00000   0.00000   0.00000  -0.00125   0.00000   0.00000   0.00000  -0.00000   0.00000  -0.04166   0.00000  -0.00000   0.00000  -0.00000   0.00000  -0.45886   0.00000  -0.00000   0.00000  -0.57750   0.00000   0.00000   0.00000  -0.00000   0.00000  -0.00000   0.00000  -0.00000   0.00000  -0.04166   0.00000   0.00000   0.00000   0.00000   0.00000  -0.00001   0.00000   0.00000   0.00000  -0.00000   0.00000   0.00029   0.00000   0.00000   0.00000   0.00000   0.00000  -0.04136   0.00000   0.00000   0.00000  -0.02289   0.00000   0.00000   0.00000  -0.00000   0.00000   0.00000   0.00000  -0.00000   0.00000   0.00029   0.00000  -0.00000   0.00000   0.00000   0.00000  -0.00000   0.00000  -0.00000   0.00000  -0.20207   0.00000  -0.00737   0.00000   0.00002   0.00000  -0.00014   0.00000   0.00051   0.00000  -0.00005   0.00000  -0.00502   0.00000  -0.00000   0.00000  -0.00002   0.00000  -0.00163   0.00000   0.00000   0.00000  -0.00300   0.00000  -0.00592   0.00000  -0.05035   0.00000  -0.00003   0.00000  -0.00517   0.00000  -0.11476   0.00000   0.00010   0.00000  -0.00210   0.00000   0.00001   0.00000   0.00002   0.00000   0.00000   0.00000  -0.00005   0.00000   0.00000   0.00000  -0.00000   0.00000  -0.00267   0.00000  -0.00002   0.00000   0.00018   0.00000  -0.00057   0.00000  -0.00062   0.00000  -0.00000   0.00000  -0.00010   0.00000  -0.00009   0.00000  -0.00441   0.00000  -0.00003   0.00000  -0.00014   0.00000   0.00133
-24.73534   0.00000  -0.03768   0.00000  -1.19217   0.00000  -0.00784   0.00000   0.00000   0.00000  -0.00126   0.00000   0.00000   0.00000  -0.00000   0.00000  -0.04165   0.00000  -0.00000   0.00000  -0.00000   0.00000  -0.45867   0.00000  -0.00000   0.00000  -0.57743   0.00000  -0.00000   0.00000  -0.00000   0.00000  -0.00000   0.00000  -0.00000   0.00000  -0.04165   0.00000   0.00000   0.00000   0.00000   0.00000  -0.00001   0.00000   0.00000   0.00000  -0.00000   0.00000   0.00029   0.00000  -0.00000   0.00000   0.00000   0.00000  -0.04135   0.00000   0.00000   0.00000  -0.02289   0.00000   0.00000   0.00000  -0.00000   0.00000   0.00000   0.00000   0.00000   0.00000   0.00029   0.00000  -0.00000   0.00000  -0.00000   0.00000  -0.00000   0.00000   0.00000   0.00000  -0.20206   0.00000  -0.00739   0.00000   0.00001   0.00000  -0.00014   0.00000   0.00051   0.00000  -0.00005   0.00000  -0.00503   0.00000  -0.00000   0.00000  -0.00002   0.00000  -0.00163   0.00000   0.00000   0.00000  -0.00301   0.00000  -0.00592   0.00000  -0.05032   0.00000  -0.00003   0.00000  -0.00517   0.00000  -0.11473   0.00000   0.00010   0.00000  -0.00210   0.00000   0.00000   0.00000   0.00002   0.00000   0.00000   0.00000  -0.00005   0.00000   0.00000   0.00000  -0.00000   0.00000  -0.00267   0.00000  -0.00002   0.00000   0.00018   0.00000  -0.00057   0.00000  -0.00062   0.00000  -0.00000   0.00000  -0.00010   0.00000  -0.00008   0.00000  -0.00441   0.00000  -0.00003   0.00000  -0.00014   0.00000   0.00133   0.00000  -0.03769   0.00000  -1.19243   0.00000  -0.00782   0.00000   0.00000   0.00000  -0.00125   0.00000   0.00000   0.00000  -0.00000   0.00000  -0.04166   0.00000  -0.00000   0.00000  -0.00000   0.00000  -0.45886   0.00000  -0.00000   0.00000  -0.57750   0.00000   0.00000   0.00000  -0.00000   0.00000  -0.00000   0.00000  -0.00000   0.00000  -0.04166   0.00000   0.00000   0.00000   0.00000   0.00000  -0.00001   0.00000   0.00000   0.00000  -0.00000   0.00000   0.00029   0.00000   0.00000   0.00000   0.00000   0.00000  -0.04136   0.00000   0.00000   0.00000  -0.02289   0.00000   0.00000   0.00000  -0.00000   0.00000   0.00000   0.00000  -0.00000   0.00000   0.00029   0.00000  -0.00000   0.00000   0.00000   0.00000  -0.00000   0.00000  -0.00000   0.00000  -0.20207   0.00000  -0.00737   0.00000   0.00002   0.00000  -0.00014   0.00000   0.00051   0.00000  -0.00005   0.00000  -0.00502   0.00000  -0.00000   0.00000  -0.00002   0.00000  -0.00163   0.00000   0.00000   0.00000  -0.00300   0.00000  -0.00592   0.00000  -0.05035   0.00000  -0.00003   0.00000  -0.00517   0.00000  -0.11476   0.00000   0.00010   0.00000  -0.00210   0.00000   0.00001   0.00000   0.00002   0.00000   0.00000   0.00000  -0.00005   0.00000   0.00000   0.00000  -0.00000   0.00000  -0.00267   0.00000  -0.00002   0.00000   0.00018   0.00000  -0.00057   0.00000  -0.00062   0.00000  -0.00000   0.00000  -0.00010   0.00000  -0.00009   0.00000  -0.00441   0.00000  -0.00003   0.00000  -0.00014   0.00000   0.00133
-24.68526   0.00000  -0.03768   0.00000  -1.19217   0.00000  -0.00784   0.00000   0.00000   0.00000  -0.00126   0.00000   0.00000   0.00000  -0.00000   0.00000  -0.04165   0.00000  -0.00000   0.00000  -0.00000   0.00000  -0.45867   0.00000  -0.00000   0.00000  -0.57743   0.00000  -0.00000   0.00000  -0.00000   0.00000  -0.00000   0.00000  -0.00000   0.00000  -0.04165   0.00000   0.00000   0.00000   0.00000   0.00000  -0.00001   0.00000   0.00000   0.00000  -0.00000   0.00000   0.00029   0.00000  -0.00000   0.00000   0.00000   0.00000  -0.04135   0.00000   0.00000   0.00000  -0.02289   0.00000   0.00000   0.00000  -0.00000   0.00000   0.00000   0.00000   0.00000   0.00000   0.00029   0.00000  -0.00000   0.00000  -0.00000   0.00000  -0.00000   0.00000   0.00000   0.00000  -0.20206   0.00000  -0.00739   0.00000   0.00001   0.00000  -0.00014   0.00000   0.00051   0.00000  -0.00005   0.00000  -0.00503   0.00000  -0.00000   0.00000  -0.00002   0.00000  -0.00163   0.00000   0.00000   0.00000  -0.00301   0.00000  -0.00592   0.00000  -0.05032   0.00000  -0.00003   0.00000  -0.00517   0.00000  -0.11473   0.00000   0.00010   0.00000  -0.00210   0.00000   0.00000   0.00000   0.00002   0.00000   0.00000   0.00000  -0.00005   0.00000   0.00000   0.00000  -0.00000   0.00000  -0.00267   0.00000  -0.00002   0.00000   0.00018   0.00000  -0.00057   0.00000  -0.00062   0.00000  -0.00000   0.00000  -0.00010   0.00000  -0.00008   0.00000  -0.00441   0.00000  -0.00003   0.00000  -0.00014   0.00000   0.00133   0.00000  -0.03769   0.00000  -1.19243   0.00000  -0.00782   0.00000   0.00000   0.00000  -0.00125   0.00000   0.00000   0.00000  -0.00000   0.00000  -0.04166   0.00000  -0.00000   0.00000  -0.00000   0.00000  -0.45886   0.00000  -0.00000   0.00000  -0.57750   0.00000   0.00000   0.00000  -0.00000   0.00000  -0.00000   0.00000  -0.00000   0.00000  -0.04166   0.00000   0.00000   0.00000   0.00000   0.00000  -0.00001   0.00000   0.00000   0.00000  -0.00000   0.00000   0.00029   0.00000   0.00000   0.00000   0.00000   0.00000  -0.04136   0.00000   0.00000   0.00000  -0.02289   0.00000   0.00000   0.00000  -0.00000   0.00000   0.00000   0.00000  -0.00000   0.00000   0.00029   0.00000  -0.00000   0.00000   0.00000   0.00000  -0.00000   0.00000  -0.00000   0.00000  -0.20207   0.00000  -0.00737   0.00000   0.00002   0.00000  -0.00014   0.00000   0.00051   0.00000  -0.00005   0.00000  -0.00502   0.00000  -0.00000   0.00000  -0.00002   0.00000  -0.00163   0.00000   0.00000   0.00000  -0.00300   0.00000  -0.00592   0.00000  -0.05035   0.00000  -0.00003   0.00000  -0.00517   0.00000  -0.11476   0.00000   0.00010   0.00000  -0.00210   0.00000   0.00001   0.00000   0.00002   0.00000   0.00000   0.00000  -0.00005   0.00000   0.00000   0.00000  -0.00000   0.00000  -0.00267   0.00000  -0.00002   0.00000   0.00018   0.00000  -0.00057   0.00000  -0.00062   0.00000  -0.00000   0.00000  -0.00010   0.00000  -0.00009   0.00000  -0.00441   0.00000  -0.00003   0.00000  -0.00014   0.00000   0.00133