ESCALE ; pCOHP file generated by LOBSTER. Energy is shifted such that the Fermi level lies at 0 eV.
        38          2        801  -2.02264e+01   1.98237e+01   4.80489e+00 
Average
No.1:Nb1->O3(2.0281490172221424)
No.1:Nb1[5s]->O3[2s](2.0281490172221424)
No.1:Nb1[5s]->O3[2p_y](2.0281490172221424)
No.1:Nb1[5s]->O3[2p_z](2.0281490172221424)
No.1:Nb1[5s]->O3[2p_x](2.0281490172221424)
No.1:Nb1[4p_y]->O3[2s](2.0281490172221424)
No.1:Nb1[4p_y]->O3[2p_y](2.0281490172221424)
No.1:Nb1[4p_y]->O3[2p_z](2.0281490172221424)
No.1:Nb1[4p_y]->O3[2p_x](2.0281490172221424)
No.1:Nb1[4p_z]->O3[2s](2.0281490172221424)
No.1:Nb1[4p_z]->O3[2p_y](2.0281490172221424)
No.1:Nb1[4p_z]->O3[2p_z](2.0281490172221424)
No.1:Nb1[4p_z]->O3[2p_x](2.0281490172221424)
No.1:Nb1[4p_x]->O3[2s](2.0281490172221424)
No.1:Nb1[4p_x]->O3[2p_y](2.0281490172221424)
No.1:Nb1[4p_x]->O3[2p_z](2.0281490172221424)
No.1:Nb1[4p_x]->O3[2p_x](2.0281490172221424)
No.1:Nb1[4d_xy]->O3[2s](2.0281490172221424)
No.1:Nb1[4d_xy]->O3[2p_y](2.0281490172221424)
No.1:Nb1[4d_xy]->O3[2p_z](2.0281490172221424)
No.1:Nb1[4d_xy]->O3[2p_x](2.0281490172221424)
No.1:Nb1[4d_yz]->O3[2s](2.0281490172221424)
No.1:Nb1[4d_yz]->O3[2p_y](2.0281490172221424)
No.1:Nb1[4d_yz]->O3[2p_z](2.0281490172221424)
No.1:Nb1[4d_yz]->O3[2p_x](2.0281490172221424)
No.1:Nb1[4d_z^2]->O3[2s](2.0281490172221424)
No.1:Nb1[4d_z^2]->O3[2p_y](2.0281490172221424)
No.1:Nb1[4d_z^2]->O3[2p_z](2.0281490172221424)
No.1:Nb1[4d_z^2]->O3[2p_x](2.0281490172221424)
No.1:Nb1[4d_xz]->O3[2s](2.0281490172221424)
No.1:Nb1[4d_xz]->O3[2p_y](2.0281490172221424)
No.1:Nb1[4d_xz]->O3[2p_z](2.0281490172221424)
No.1:Nb1[4d_xz]->O3[2p_x](2.0281490172221424)
No.1:Nb1[4d_x^2-y^2]->O3[2s](2.0281490172221424)
No.1:Nb1[4d_x^2-y^2]->O3[2p_y](2.0281490172221424)
No.1:Nb1[4d_x^2-y^2]->O3[2p_z](2.0281490172221424)
No.1:Nb1[4d_x^2-y^2]->O3[2p_x](2.0281490172221424)
-25.03129   0.00000  -0.01554   0.00000  -0.28746   0.00000  -0.00839   0.00000   0.00000   0.00000   0.00192   0.00000   0.00000   0.00000  -0.00000   0.00000  -0.00767   0.00000  -0.00000   0.00000  -0.00000   0.00000  -0.08698   0.00000   0.00000   0.00000  -0.17418   0.00000   0.00000   0.00000  -0.00000   0.00000  -0.00000   0.00000  -0.00000   0.00000  -0.00767   0.00000   0.00000   0.00000   0.00000   0.00000  -0.00000   0.00000   0.00000   0.00000  -0.00000   0.00000  -0.00052   0.00000  -0.00000   0.00000  -0.00000   0.00000  -0.00766   0.00000   0.00000   0.00000   0.00421   0.00000   0.00000   0.00000  -0.00000   0.00000  -0.00000   0.00000  -0.00000   0.00000  -0.00052   0.00000   0.00000   0.00000  -0.00000   0.00000  -0.00000   0.00000  -0.00000   0.00000  -0.01554   0.00000  -0.28750   0.00000  -0.00838   0.00000   0.00000   0.00000   0.00194   0.00000   0.00000   0.00000  -0.00000   0.00000  -0.00767   0.00000  -0.00000   0.00000  -0.00000   0.00000  -0.08699   0.00000  -0.00000   0.00000  -0.17424   0.00000   0.00000   0.00000  -0.00000   0.00000  -0.00000   0.00000  -0.00000   0.00000  -0.00767   0.00000   0.00000   0.00000   0.00000   0.00000  -0.00000   0.00000   0.00000   0.00000  -0.00000   0.00000  -0.00052   0.00000  -0.00000   0.00000  -0.00000   0.00000  -0.00766   0.00000   0.00000   0.00000   0.00421   0.00000   0.00000   0.00000  -0.00000   0.00000  -0.00000   0.00000  -0.00000   0.00000  -0.00052   0.00000   0.00000   0.00000  -0.00000   0.00000   0.00000   0.00000  -0.00000
-24.98123   0.00000  -0.01554   0.00000  -0.28746   0.00000  -0.00839   0.00000   0.00000   0.00000   0.00192   0.00000   0.00000   0.00000  -0.00000   0.00000  -0.00767   0.00000  -0.00000   0.00000  -0.00000   0.00000  -0.08698   0.00000   0.00000   0.00000  -0.17418   0.00000   0.00000   0.00000  -0.00000   0.00000  -0.00000   0.00000  -0.00000   0.00000  -0.00767   0.00000   0.00000   0.00000   0.00000   0.00000  -0.00000   0.00000   0.00000   0.00000  -0.00000   0.00000  -0.00052   0.00000  -0.00000   0.00000  -0.00000   0.00000  -0.00766   0.00000   0.00000   0.00000   0.00421   0.00000   0.00000   0.00000  -0.00000   0.00000  -0.00000   0.00000  -0.00000   0.00000  -0.00052   0.00000   0.00000   0.00000  -0.00000   0.00000  -0.00000   0.00000  -0.00000   0.00000  -0.01554   0.00000  -0.28750   0.00000  -0.00838   0.00000   0.00000   0.00000   0.00194   0.00000   0.00000   0.00000  -0.00000   0.00000  -0.00767   0.00000  -0.00000   0.00000  -0.00000   0.00000  -0.08699   0.00000  -0.00000   0.00000  -0.17424   0.00000   0.00000   0.00000  -0.00000   0.00000  -0.00000   0.00000  -0.00000   0.00000  -0.00767   0.00000   0.00000   0.00000   0.00000   0.00000  -0.00000   0.00000   0.00000   0.00000  -0.00000   0.00000  -0.00052   0.00000  -0.00000   0.00000  -0.00000   0.00000  -0.00766   0.00000   0.00000   0.00000   0.00421   0.00000   0.00000   0.00000  -0.00000   0.00000  -0.00000   0.00000  -0.00000   0.00000  -0.00052   0.00000   0.00000   0.00000  -0.00000   0.00000   0.00000   0.00000  -0.00000
-24.93116   0.00000  -0.01554   0.00000  -0.28746   0.00000  -0.00839   0.00000   0.00000   0.00000   0.00192   0.00000   0.00000   0.00000  -0.00000   0.00000  -0.00767   0.00000  -0.00000   0.00000  -0.00000   0.00000  -0.08698   0.00000   0.00000   0.00000  -0.17418   0.00000   0.00000   0.00000  -0.00000   0.00000  -0.00000   0.00000  -0.00000   0.00000  -0.00767   0.00000   0.00000   0.00000   0.00000   0.00000  -0.00000   0.00000   0.00000   0.00000  -0.00000   0.00000  -0.00052   0.00000  -0.00000   0.00000  -0.00000   0.00000  -0.00766   0.00000   0.00000   0.00000   0.00421   0.00000   0.00000   0.00000  -0.00000   0.00000  -0.00000   0.00000  -0.00000   0.00000  -0.00052   0.00000   0.00000   0.00000  -0.00000   0.00000  -0.00000   0.00000  -0.00000   0.00000  -0.01554   0.00000  -0.28750   0.00000  -0.00838   0.00000   0.00000   0.00000   0.00194   0.00000   0.00000   0.00000  -0.00000   0.00000  -0.00767   0.00000  -0.00000   0.00000  -0.00000   0.00000  -0.08699   0.00000  -0.00000   0.00000  -0.17424   0.00000   0.00000   0.00000  -0.00000   0.00000  -0.00000   0.00000  -0.00000   0.00000  -0.00767   0.00000   0.00000   0.00000   0.00000   0.00000  -0.00000   0.00000   0.00000   0.00000  -0.00000   0.00000  -0.00052   0.00000  -0.00000   0.00000  -0.00000   0.00000  -0.00766   0.00000   0.00000   0.00000   0.00421   0.00000   0.00000   0.00000  -0.00000   0.00000  -0.00000   0.00000  -0.00000   0.00000  -0.00052   0.00000   0.00000   0.00000  -0.00000   0.00000   0.00000   0.00000  -0.00000
-24.88110   0.00000  -0.01554   0.00000  -0.28746   0.00000  -0.00839   0.00000   0.00000   0.00000   0.00192   0.00000   0.00000   0.00000  -0.00000   0.00000  -0.00767   0.00000  -0.00000   0.00000  -0.00000   0.00000  -0.08698   0.00000   0.00000   0.00000  -0.17418   0.00000   0.00000   0.00000  -0.00000   0.00000  -0.00000   0.00000  -0.00000   0.00000  -0.00767   0.00000   0.00000   0.00000   0.00000   0.00000  -0.00000   0.00000   0.00000   0.00000  -0.00000   0.00000  -0.00052   0.00000  -0.00000   0.00000  -0.00000   0.00000  -0.00766   0.00000   0.00000   0.00000   0.00421   0.00000   0.00000   0.00000  -0.00000   0.00000  -0.00000   0.00000  -0.00000   0.00000  -0.00052   0.00000   0.00000   0.00000  -0.00000   0.00000  -0.00000   0.00000  -0.00000   0.00000  -0.01554   0.00000  -0.28750   0.00000  -0.00838   0.00000   0.00000   0.00000   0.00194   0.00000   0.00000   0.00000  -0.00000   0.00000  -0.00767   0.00000  -0.00000   0.00000  -0.00000   0.00000  -0.08699   0.00000  -0.00000   0.00000  -0.17424   0.00000   0.00000   0.00000  -0.00000   0.00000  -0.00000   0.00000  -0.00000   0.00000  -0.00767   0.00000   0.00000   0.00000   0.00000   0.00000  -0.00000   0.00000   0.00000   0.00000  -0.00000   0.00000  -0.00052   0.00000  -0.00000   0.00000  -0.00000   0.00000  -0.00766   0.00000   0.00000   0.00000   0.00421   0.00000   0.00000   0.00000  -0.00000   0.00000  -0.00000   0.00000  -0.00000   0.00000  -0.00052   0.00000   0.00000   0.00000  -0.00000   0.00000   0.00000   0.00000  -0.00000
-24.83104   0.00000  -0.01554   0.00000  -0.28746   0.00000  -0.00839   0.00000   0.00000   0.00000   0.00192   0.00000   0.00000   0.00000  -0.00000   0.00000  -0.00767   0.00000  -0.00000   0.00000  -0.00000   0.00000  -0.08698   0.00000   0.00000   0.00000  -0.17418   0.00000   0.00000   0.00000  -0.00000   0.00000  -0.00000   0.00000  -0.00000   0.00000  -0.00767   0.00000   0.00000   0.00000   0.00000   0.00000  -0.00000   0.00000   0.00000   0.00000  -0.00000   0.00000  -0.00052   0.00000  -0.00000   0.00000  -0.00000   0.00000  -0.00766   0.00000   0.00000   0.00000   0.00421   0.00000   0.00000   0.00000  -0.00000   0.00000  -0.00000   0.00000  -0.00000   0.00000  -0.00052   0.00000   0.00000   0.00000  -0.00000   0.00000  -0.00000   0.00000  -0.00000   0.00000  -0.01554   0.00000  -0.28750   0.00000  -0.00838   0.00000   0.00000   0.00000   0.00194   0.00000   0.00000   0.00000  -0.00000   0.00000  -0.00767   0.00000  -0.00000   0.00000  -0.00000   0.00000  -0.08699   0.00000  -0.00000   0.00000  -0.17424   0.00000   0.00000   0.00000  -0.00000   0.00000  -0.00000   0.00000  -0.00000   0.00000  -0.00767   0.00000   0.00000   0.00000   0.00000   0.00000  -0.00000   0.00000   0.00000   0.00000  -0.00000   0.00000  -0.00052   0.00000  -0.00000   0.00000  -0.00000   0.00000  -0.00766   0.00000   0.00000   0.00000   0.00421   0.00000   0.00000   0.00000  -0.00000   0.00000  -0.00000   0.00000  -0.00000   0.00000  -0.00052   0.00000   0.00000   0.00000  -0.00000   0.00000   0.00000   0.00000  -0.00000
-24.78098   0.00000  -0.01554   0.00000  -0.28746   0.00000  -0.00839   0.00000   0.00000   0.00000   0.00192   0.00000   0.00000   0.00000  -0.00000   0.00000  -0.00767   0.00000  -0.00000   0.00000  -0.00000   0.00000  -0.08698   0.00000   0.00000   0.00000  -0.17418   0.00000   0.00000   0.00000  -0.00000   0.00000  -0.00000   0.00000  -0.00000   0.00000  -0.00767   0.00000   0.00000   0.00000   0.00000   0.00000  -0.00000   0.00000   0.00000   0.00000  -0.00000   0.00000  -0.00052   0.00000  -0.00000   0.00000  -0.00000   0.00000  -0.00766   0.00000   0.00000   0.00000   0.00421   0.00000   0.00000   0.00000  -0.00000   0.00000  -0.00000   0.00000  -0.00000   0.00000  -0.00052   0.00000   0.00000   0.00000  -0.00000   0.00000  -0.00000   0.00000  -0.00000   0.00000  -0.01554   0.00000  -0.28750   0.00000  -0.00838   0.00000   0.00000   0.00000   0.00194   0.00000   0.00000   0.00000  -0.00000   0.00000  -0.00767   0.00000  -0.00000   0.00000  -0.00000   0.00000  -0.08699   0.00000  -0.00000   0.00000  -0.17424   0.00000   0.00000   0.00000  -0.00000   0.00000  -0.00000   0.00000  -0.00000   0.00000  -0.00767   0.00000   0.00000   0.00000   0.00000   0.00000  -0.00000   0.00000   0.00000   0.00000  -0.00000   0.00000  -0.00052   0.00000  -0.00000   0.00000  -0.00000   0.00000  -0.00766   0.00000   0.00000   0.00000   0.00421   0.00000   0.00000   0.00000  -0.00000   0.00000  -0.00000   0.00000  -0.00000   0.00000  -0.00052   0.00000   0.00000   0.00000  -0.00000   0.00000   0.00000   0.00000  -0.00000
-24.73091   0.00000  -0.01554   0.00000  -0.28746   0.00000  -0.00839   0.00000   0.00000   0.00000   0.00192   0.00000   0.00000   0.00000  -0.00000   0.00000  -0.00767   0.00000  -0.00000   0.00000  -0.00000   0.00000  -0.08698   0.00000   0.00000   0.00000  -0.17418   0.00000   0.00000   0.00000  -0.00000   0.00000  -0.00000   0.00000  -0.00000   0.00000  -0.00767   0.00000   0.00000   0.00000   0.00000   0.00000  -0.00000   0.00000   0.00000   0.00000  -0.00000   0.00000  -0.00052   0.00000  -0.00000   0.00000  -0.00000   0.00000  -0.00766   0.00000   0.00000   0.00000   0.00421   0.00000   0.00000   0.00000  -0.00000   0.00000  -0.00000   0.00000  -0.00000   0.00000  -0.00052   0.00000   0.00000   0.00000  -0.00000   0.00000  -0.00000   0.00000  -0.00000   0.00000  -0.01554   0.00000  -0.28750   0.00000  -0.00838   0.00000   0.00000   0.00000   0.00194   0.00000   0.00000   0.00000  -0.00000   0.00000  -0.00767   0.00000  -0.00000   0.00000  -0.00000   0.00000  -0.08699   0.00000  -0.00000   0.00000  -0.17424   0.00000   0.00000   0.00000  -0.00000   0.00000  -0.00000   0.00000  -0.00000   0.00000  -0.00767   0.00000   0.00000   0.00000   0.00000   0.00000  -0.00000   0.00000   0.00000   0.00000  -0.00000   0.00000  -0.00052   0.00000  -0.00000   0.00000  -0.00000   0.00000  -0.00766   0.00000   0.00000   0.00000   0.00421   0.00000   0.00000   0.00000  -0.00000   0.00000  -0.00000   0.00000  -0.00000   0.00000  -0.00052   0.00000   0.00000   0.00000  -0.00000   0.00000   0.00000   0.00000  -0.00000
-24.68085   0.00000  -0.01554   0.00000  -0.28746   0.00000  -0.00839   0.00000   0.00000   0.00000   0.00192   0.00000   0.00000   0.00000  -0.00000   0.00000  -0.00767   0.00000  -0.00000   0.00000  -0.00000   0.00000  -0.08698   0.00000   0.00000   0.00000  -0.17418   0.00000   0.00000   0.00000  -0.00000   0.00000  -0.00000   0.00000  -0.00000   0.00000  -0.00767   0.00000   0.00000   0.00000   0.00000   0.00000  -0.00000   0.00000   0.00000   0.00000  -0.00000   0.00000  -0.00052   0.00000  -0.00000   0.00000  -0.00000   0.00000  -0.00766   0.00000   0.00000   0.00000   0.00421   0.00000   0.00000   0.00000  -0.00000   0.00000  -0.00000   0.00000  -0.00000   0.00000  -0.00052   0.00000   0.00000   0.00000  -0.00000   0.00000  -0.00000   0.00000  -0.00000   0.00000  -0.01554   0.00000  -0.28750   0.00000  -0.00838   0.00000   0.00000   0.00000   0.00194   0.00000   0.00000   0.00000  -0.00000   0.00000  -0.00767   0.00000  -0.00000   0.00000  -0.00000   0.00000  -0.08699   0.00000  -0.00000   0.00000  -0.17424   0.00000   0.00000   0.00000  -0.00000   0.00000  -0.00000   0.00000  -0.00000   0.00000  -0.00767   0.00000   0.00000   0.00000   0.00000   0.00000  -0.00000   0.00000   0.00000   0.00000  -0.00000   0.00000  -0.00052   0.00000  -0.00000   0.00000  -0.00000   0.00000  -0.00766   0.00000   0.00000   0.00000   0.00421   0.00000   0.00000   0.00000  -0.00000   0.00000  -0.00000   0.00000  -0.00000   0.00000  -0.00052   0.00000   0.00000   0.00000  -0.00000   0.00000   0.00000   0.00000  -0.00000
-24.63079   0.00000  -0.01554   0.00000  -0.28746   0.00000  -0.00839   0.00000   0.00000   0.00000   0.00192   0.00000   0.00000   0.00000  -0.00000   0.00000  -0.00767   0.00000  -0.00000   0.00000  -0.00000   0.00000  -0.08698   0.00000   0.00000   0.00000  -0.17418   0.00000   0.00000   0.00000  -0.00000   0.00000  -0.00000   0.00000  -0.00000   0.00000  -0.00767   0.00000   0.00000   0.00000   0.00000   0.00000  -0.00000   0.00000   0.00000   0.00000  -0.00000   0.00000  -0.00052   0.00000  -0.00000   0.00000  -0.00000   0.00000  -0.00766   0.00000   0.00000   0.00000   0.00421   0.00000   0.00000   0.00000  -0.00000   0.00000  -0.00000   0.00000  -0.00000   0.00000  -0.00052   0.00000   0.00000   0.00000  -0.00000   0.00000  -0.00000   0.00000  -0.00000   0.00000  -0.01554   0.00000  -0.28750   0.00000  -0.00838   0.00000   0.00000   0.00000   0.00194   0.00000   0.00000   0.00000  -0.00000   0.00000  -0.00767   0.00000  -0.00000   0.00000  -0.00000   0.00000  -0.08699   0.00000  -0.00000   0.00000  -0.17424   0.00000   0.00000   0.00000  -0.00000   0.00000  -0.00000   0.00000  -0.00000   0.00000  -0.00767   0.00000   0.00000   0.00000   0.00000   0.00000  -0.00000   0.00000   0.00000   0.00000  -0.00000   0.00000  -0.00052   0.00000  -0.00000   0.00000  -0.00000   0.00000  -0.00766   0.00000   0.00000   0.00000   0.00421   0.00000   0.00000   0.00000  -0.00000   0.00000  -0.00000   0.00000  -0.00000   0.00000  -0.00052   0.00000   0.00000   0.00000  -0.00000   0.00000   0.00000   0.00000  -0.00000
-24.58073   0.00000  -0.01554   0.00000  -0.28746   0.00000  -0.00839   0.00000   0.00000   0.00000   0.00192   0.00000   0.00000   0.00000  -0.00000   0.00000  -0.00767   0.00000  -0.00000   0.00000  -0.00000   0.00000  -0.08698   0.00000   0.00000   0.00000  -0.17418   0.00000   0.00000   0.00000  -0.00000   0.00000  -0.00000   0.00000  -0.00000   0.00000  -0.00767   0.00000   0.00000   0.00000   0.00000   0.00000  -0.00000   0.00000   0.00000   0.00000  -0.00000   0.00000  -0.00052   0.00000  -0.00000   0.00000  -0.00000   0.00000  -0.00766   0.00000   0.00000   0.00000   0.00421   0.00000   0.00000   0.00000  -0.00000   0.00000  -0.00000   0.00000  -0.00000   0.00000  -0.00052   0.00000   0.00000   0.00000  -0.00000   0.00000  -0.00000   0.00000  -0.00000   0.00000  -0.01554   0.00000  -0.28750   0.00000  -0.00838   0.00000   0.00000   0.00000   0.00194   0.00000   0.00000   0.00000  -0.00000   0.00000  -0.00767   0.00000  -0.00000   0.00000  -0.00000   0.00000  -0.08699   0.00000  -0.00000   0.00000  -0.17424   0.00000   0.00000   0.00000  -0.00000   0.00000  -0.00000   0.00000  -0.00000   0.00000  -0.00767   0.00000   0.00000   0.00000   0.00000   0.00000  -0.00000   0.00000   0.00000   0.00000  -0.00000   0.00000  -0.00052   0.00000  -0.00000   0.00000  -0.00000   0.00000  -0.00766   0.00000   0.00000   0.00000   0.00421   0.00000   0.00000   0.00000  -0.00000   0.00000  -0.00000   0.00000  -0.00000   0.00000  -0.00052   0.00000   0.00000   0.00000  -0.00000   0.00000   0.00000   0.00000  -0.00000
-24.53066   0.00000  -0.01554   0.00000  -0.28746   0.00000  -0.00839   0.00000   0.00000   0.00000   0.00192   0.00000   0.00000   0.00000  -0.00000   0.00000  -0.00767   0.00000  -0.00000   0.00000  -0.00000   0.00000  -0.08698   0.00000   0.00000   0.00000  -0.17418   0.00000   0.00000   0.00000  -0.00000   0.00000  -0.00000   0.00000  -0.00000   0.00000  -0.00767   0.00000   0.00000   0.00000   0.00000   0.00000  -0.00000   0.00000   0.00000   0.00000  -0.00000   0.00000  -0.00052   0.00000  -0.00000   0.00000  -0.00000   0.00000  -0.00766   0.00000   0.00000   0.00000   0.00421   0.00000   0.00000   0.00000  -0.00000   0.00000  -0.00000   0.00000  -0.00000   0.00000  -0.00052   0.00000   0.00000   0.00000  -0.00000   0.00000  -0.00000   0.00000  -0.00000   0.00000  -0.01554   0.00000  -0.28750   0.00000  -0.00838   0.00000   0.00000   0.00000   0.00194   0.00000   0.00000   0.00000  -0.00000   0.00000  -0.00767   0.00000  -0.00000   0.00000  -0.00000   0.00000  -0.08699   0.00000  -0.00000   0.00000  -0.17424   0.00000   0.00000   0.00000  -0.00000   0.00000  -0.00000   0.00000  -0.00000   0.00000  -0.00767   0.00000   0.00000   0.00000   0.00000   0.00000  -0.00000   0.00000   0.00000   0.00000  -0.00000   0.00000  -0.00052   0.00000  -0.00000   0.00000  -0.00000   0.00000  -0.00766   0.00000   0.00000   0.00000   0.00421   0.00000   0.00000   0.00000  -0.00000   0.00000  -0.00000   0.00000  -0.00000   0.00000  -0.00052   0.00000   0.00000   0.00000  -0.00000   0.00000   0.00000   0.00000  -0.00000
-24.48060   0.00000  -0.01554   0.00000  -0.28746   0.00000  -0.00839   0.00000   0.00000   0.00000   0.00192   0.00000   0.00000   0.00000  -0.00000   0.00000  -0.00767   0.00000  -0.00000   0.00000  -0.00000   0.00000  -0.08698   0.00000   0.00000   0.00000  -0.17418   0.00000   0.00000   0.00000  -0.00000   0.00000  -0.00000   0.00000  -0.00000   0.00000  -0.00767   0.00000   0.00000   0.00000   0.00000   0.00000  -0.00000   0.00000   0.00000   0.00000  -0.00000   0.00000  -0.00052   0.00000  -0.00000   0.00000  -0.00000   0.00000  -0.00766   0.00000   0.00000   0.00000   0.00421   0.00000   0.00000   0.00000  -0.00000   0.00000  -0.00000   0.00000  -0.00000   0.00000  -0.00052   0.00000   0.00000   0.00000  -0.00000   0.00000  -0.00000   0.00000  -0.00000   0.00000  -0.01554   0.00000  -0.28750   0.00000  -0.00838   0.00000   0.00000   0.00000   0.00194   0.00000   0.00000   0.00000  -0.00000   0.00000  -0.00767   0.00000  -0.00000   0.00000  -0.00000   0.00000  -0.08699   0.00000  -0.00000   0.00000  -0.17424   0.00000   0.00000   0.00000  -0.00000   0.00000  -0.00000   0.00000  -0.00000   0.00000  -0.00767   0.00000   0.00000   0.00000   0.00000   0.00000  -0.00000   0.00000   0.00000   0.00000  -0.00000   0.00000  -0.00052   0.00000  -0.00000   0.00000  -0.00000   0.00000  -0.00766   0.00000   0.00000   0.00000   0.00421   0.00000   0.00000   0.00000  -0.00000   0.00000  -0.00000   0.00000  -0.00000   0.00000  -0.00052   0.00000   0.00000   0.00000  -0.00000   0.00000   0.00000   0.00000  -0.00000
-24.43054   0.00000  -0.01554   0.00000  -0.28746   0.00000  -0.00839   0.00000   0.00000   0.00000   0.00192   0.00000   0.00000   0.00000  -0.00000   0.00000  -0.00767   0.00000  -0.00000   0.00000  -0.00000   0.00000  -0.08698   0.00000   0.00000   0.00000  -0.17418   0.00000   0.00000   0.00000  -0.00000   0.00000  -0.00000   0.00000  -0.00000   0.00000  -0.00767   0.00000   0.00000   0.00000   0.00000   0.00000  -0.00000   0.00000   0.00000   0.00000  -0.00000   0.00000  -0.00052   0.00000  -0.00000   0.00000  -0.00000   0.00000  -0.00766   0.00000   0.00000   0.00000   0.00421   0.00000   0.00000   0.00000  -0.00000   0.00000  -0.00000   0.00000  -0.00000   0.00000  -0.00052   0.00000   0.00000   0.00000  -0.00000   0.00000  -0.00000   0.00000  -0.00000   0.00000  -0.01554   0.00000  -0.28750   0.00000  -0.00838   0.00000   0.00000   0.00000   0.00194   0.00000   0.00000   0.00000  -0.00000   0.00000  -0.00767   0.00000  -0.00000   0.00000  -0.00000   0.00000  -0.08699   0.00000  -0.00000   0.00000  -0.17424   0.00000   0.00000   0.00000  -0.00000   0.00000  -0.00000   0.00000  -0.00000   0.00000  -0.00767   0.00000   0.00000   0.00000   0.00000   0.00000  -0.00000   0.00000   0.00000   0.00000  -0.00000   0.00000  -0.00052   0.00000  -0.00000   0.00000  -0.00000   0.00000  -0.00766   0.00000   0.00000   0.00000   0.00421   0.00000   0.00000   0.00000  -0.00000   0.00000  -0.00000   0.00000  -0.00000   0.00000  -0.00052   0.00000   0.00000   0.00000  -0.00000   0.00000   0.00000   0.00000  -0.00000
-24.38048   0.00000  -0.01554   0.00000  -0.28746   0.00000  -0.00839   0.00000   0.00000   0.00000   0.00192   0.00000   0.00000   0.00000  -0.00000   0.00000  -0.00767   0.00000  -0.00000   0.00000  -0.00000   0.00000  -0.08698   0.00000   0.00000   0.00000  -0.17418   0.00000   0.00000   0.00000  -0.00000   0.00000  -0.00000   0.00000  -0.00000   0.00000  -0.00767   0.00000   0.00000   0.00000   0.00000   0.00000  -0.00000   0.00000   0.00000   0.00000  -0.00000   0.00000  -0.00052   0.00000  -0.00000   0.00000  -0.00000   0.00000  -0.00766   0.00000   0.00000   0.00000   0.00421   0.00000   0.00000   0.00000  -0.00000   0.00000  -0.00000   0.00000  -0.00000   0.00000  -0.00052   0.00000   0.00000   0.00000  -0.00000   0.00000  -0.00000   0.00000  -0.00000   0.00000  -0.01554   0.00000  -0.28750   0.00000  -0.00838   0.00000   0.00000   0.00000   0.00194   0.00000   0.00000   0.00000  -0.00000   0.00000  -0.00767   0.00000  -0.00000   0.00000  -0.00000   0.00000  -0.08699   0.00000  -0.00000   0.00000  -0.17424   0.00000   0.00000   0.00000  -0.00000   0.00000  -0.00000   0.00000  -0.00000   0.00000  -0.00767   0.00000   0.00000   0.00000   0.00000   0.00000  -0.00000   0.00000   0.00000   0.00000  -0.00000   0.00000  -0.00052   0.00000  -0.00000   0.00000  -0.00000   0.00000  -0.00766   0.00000   0.00000   0.00000   0.00421   0.00000   0.00000   0.00000  -0.00000   0.00000  -0.00000   0.00000  -0.00000   0.00000  -0.00052   0.00000   0.00000   0.00000  -0.00000   0.00000   0.00000   0.00000  -0.00000
-24.33041   0.00000  -0.01554   0.00000  -0.28746   0.00000  -0.00839   0.00000   0.00000   0.00000   0.00192   0.00000   0.00000   0.00000  -0.00000   0.00000  -0.00767   0.00000  -0.00000   0.00000  -0.00000   0.00000  -0.08698   0.00000   0.00000   0.00000  -0.17418   0.00000   0.00000   0.00000  -0.00000   0.00000  -0.00000   0.00000  -0.00000   0.00000  -0.00767   0.00000   0.00000   0.00000   0.00000   0.00000  -0.00000   0.00000   0.00000   0.00000  -0.00000   0.00000  -0.00052   0.00000  -0.00000   0.00000  -0.00000   0.00000  -0.00766   0.00000   0.00000   0.00000   0.00421   0.00000   0.00000   0.00000  -0.00000   0.00000  -0.00000   0.00000  -0.00000   0.00000  -0.00052   0.00000   0.00000   0.00000  -0.00000   0.00000  -0.00000   0.00000  -0.00000   0.00000  -0.01554   0.00000  -0.28750   0.00000  -0.00838   0.00000   0.00000   0.00000   0.00194   0.00000   0.00000   0.00000  -0.00000   0.00000  -0.00767   0.00000  -0.00000   0.00000  -0.00000   0.00000  -0.08699   0.00000  -0.00000   0.00000  -0.17424   0.00000   0.00000   0.00000  -0.00000   0.00000  -0.00000   0.00000  -0.00000   0.00000  -0.00767   0.00000   0.00000   0.00000   0.00000   0.00000  -0.00000   0.00000   0.00000   0.00000  -0.00000   0.00000  -0.00052   0.00000  -0.00000   0.00000  -0.00000   0.00000  -0.00766   0.00000   0.00000   0.00000   0.00421   0.00000   0.00000   0.00000  -0.00000   0.00000  -0.00000   0.00000  -0.00000   0.00000  -0.00052   0.00000   0.00000   0.00000  -0.00000   0.00000   0.00000   0.00000  -0.00000
-24.28035   0.00000  -0.01554   0.00000  -0.28746   0.00000  -0.00839   0.00000   0.00000   0.00000   0.00192   0.00000   0.00000   0.00000  -0.00000   0.00000  -0.00767   0.00000  -0.00000   0.00000  -0.00000   0.00000  -0.08698   0.00000   0.00000   0.00000  -0.17418   0.00000   0.00000   0.00000  -0.00000   0.00000  -0.00000   0.00000  -0.00000   0.00000  -0.00767   0.00000   0.00000   0.00000   0.00000   0.00000  -0.00000   0.00000   0.00000   0.00000  -0.00000   0.00000  -0.00052   0.00000  -0.00000   0.00000  -0.00000   0.00000  -0.00766   0.00000   0.00000   0.00000   0.00421   0.00000   0.00000   0.00000  -0.00000   0.00000  -0.00000   0.00000  -0.00000   0.00000  -0.00052   0.00000   0.00000   0.00000  -0.00000   0.00000  -0.00000   0.00000  -0.00000   0.00000  -0.01554   0.00000  -0.28750   0.00000  -0.00838   0.00000   0.00000   0.00000   0.00194   0.00000   0.00000   0.00000  -0.00000   0.00000  -0.00767   0.00000  -0.00000   0.00000  -0.00000   0.00000  -0.08699   0.00000  -0.00000   0.00000  -0.17424   0.00000   0.00000   0.00000  -0.00000   0.00000  -0.00000   0.00000  -0.00000   0.00000  -0.00767   0.00000   0.00000   0.00000   0.00000   0.00000  -0.00000   0.00000   0.00000   0.00000  -0.00000   0.00000  -0.00052   0.00000  -0.00000   0.00000  -0.00000   0.00000  -0.00766   0.00000   0.00000   0.00000   0.00421   0.00000   0.00000   0.00000  -0.00000   0.00000  -0.00000   0.00000  -0.00000   0.00000  -0.00052   0.00000   0.00000   0.00000  -0.00000   0.00000   0.00000   0.00000  -0.00000
-24.23029   0.00000  -0.01554   0.00000  -0.28746   0.00000  -0.00839   0.00000   0.00000   0.00000   0.00192   0.00000   0.00000   0.00000  -0.00000   0.00000  -0.00767   0.00000  -0.00000   0.00000  -0.00000   0.00000  -0.08698   0.00000   0.00000   0.00000  -0.17418   0.00000   0.00000   0.00000  -0.00000   0.00000  -0.00000   0.00000  -0.00000   0.00000  -0.00767   0.00000   0.00000   0.00000   0.00000   0.00000  -0.00000   0.00000   0.00000   0.00000  -0.00000   0.00000  -0.00052   0.00000  -0.00000   0.00000  -0.00000   0.00000  -0.00766   0.00000   0.00000   0.00000   0.00421   0.00000   0.00000   0.00000  -0.00000   0.00000  -0.00000   0.00000  -0.00000   0.00000  -0.00052   0.00000   0.00000   0.00000  -0.00000   0.00000  -0.00000   0.00000  -0.00000   0.00000  -0.01554   0.00000  -0.28750   0.00000  -0.00838   0.00000   0.00000   0.00000   0.00194   0.00000   0.00000   0.00000  -0.00000   0.00000  -0.00767   0.00000  -0.00000   0.00000  -0.00000   0.00000  -0.08699   0.00000  -0.00000   0.00000  -0.17424   0.00000   0.00000   0.00000  -0.00000   0.00000  -0.00000   0.00000  -0.00000   0.00000  -0.00767   0.00000   0.00000   0.00000   0.00000   0.00000  -0.00000   0.00000   0.00000   0.00000  -0.00000   0.00000  -0.00052   0.00000  -0.00000   0.00000  -0.00000   0.00000  -0.00766   0.00000   0.00000   0.00000   0.00421   0.00000   0.00000   0.00000  -0.00000   0.00000  -0.00000   0.00000  -0.00000   0.00000  -0.00052   0.00000   0.00000   0.00000  -0.00000   0.00000   0.00000   0.00000  -0.00000
-24.18023   0.00000  -0.01554   0.00000  -0.28746   0.00000  -0.00839   0.00000   0.00000   0.00000   0.00192   0.00000   0.00000   0.00000  -0.00000   0.00000  -0.00767   0.00000  -0.00000   0.00000  -0.00000   0.00000  -0.08698   0.00000   0.00000   0.00000  -0.17418   0.00000   0.00000   0.00000  -0.00000   0.00000  -0.00000   0.00000  -0.00000   0.00000  -0.00767   0.00000   0.00000   0.00000   0.00000   0.00000  -0.00000   0.00000   0.00000   0.00000  -0.00000   0.00000  -0.00052   0.00000  -0.00000   0.00000  -0.00000   0.00000  -0.00766   0.00000   0.00000   0.00000   0.00421   0.00000   0.00000   0.00000  -0.00000   0.00000  -0.00000   0.00000  -0.00000   0.00000  -0.00052   0.00000   0.00000   0.00000  -0.00000   0.00000  -0.00000   0.00000  -0.00000   0.00000  -0.01554   0.00000  -0.28750   0.00000  -0.00838   0.00000   0.00000   0.00000   0.00194   0.00000   0.00000   0.00000  -0.00000   0.00000  -0.00767   0.00000  -0.00000   0.00000  -0.00000   0.00000  -0.08699   0.00000  -0.00000   0.00000  -0.17424   0.00000   0.00000   0.00000  -0.00000   0.00000  -0.00000   0.00000  -0.00000   0.00000  -0.00767   0.00000   0.00000   0.00000   0.00000   0.00000  -0.00000   0.00000   0.00000   0.00000  -0.00000   0.00000  -0.00052   0.00000  -0.00000   0.00000  -0.00000   0.00000  -0.00766   0.00000   0.00000   0.00000   0.00421   0.00000   0.00000   0.00000  -0.00000   0.00000  -0.00000   0.00000  -0.00000   0.00000  -0.00052   0.00000   0.00000   0.00000  -0.00000   0.00000   0.00000   0.00000  -0.00000