ESCALE ; pCOHP file generated by LOBSTER. Energy is shifted such that the Fermi level lies at 0 eV.
        51          2        701  -2.58853e+01   9.16481e+00  -8.49498e-01 
Average
No.1:Nb19->O13(3.9966919325454651)
No.1:Nb19[5s]->O13[2s](3.9966919325454651)
No.1:Nb19[5s]->O13[2p_y](3.9966919325454651)
No.1:Nb19[5s]->O13[2p_z](3.9966919325454651)
No.1:Nb19[5s]->O13[2p_x](3.9966919325454651)
No.1:Nb19[4d_xy]->O13[2s](3.9966919325454651)
No.1:Nb19[4d_xy]->O13[2p_y](3.9966919325454651)
No.1:Nb19[4d_xy]->O13[2p_z](3.9966919325454651)
No.1:Nb19[4d_xy]->O13[2p_x](3.9966919325454651)
No.1:Nb19[4d_yz]->O13[2s](3.9966919325454651)
No.1:Nb19[4d_yz]->O13[2p_y](3.9966919325454651)
No.1:Nb19[4d_yz]->O13[2p_z](3.9966919325454651)
No.1:Nb19[4d_yz]->O13[2p_x](3.9966919325454651)
No.1:Nb19[4d_z^2]->O13[2s](3.9966919325454651)
No.1:Nb19[4d_z^2]->O13[2p_y](3.9966919325454651)
No.1:Nb19[4d_z^2]->O13[2p_z](3.9966919325454651)
No.1:Nb19[4d_z^2]->O13[2p_x](3.9966919325454651)
No.1:Nb19[4d_xz]->O13[2s](3.9966919325454651)
No.1:Nb19[4d_xz]->O13[2p_y](3.9966919325454651)
No.1:Nb19[4d_xz]->O13[2p_z](3.9966919325454651)
No.1:Nb19[4d_xz]->O13[2p_x](3.9966919325454651)
No.1:Nb19[4d_x^2-y^2]->O13[2s](3.9966919325454651)
No.1:Nb19[4d_x^2-y^2]->O13[2p_y](3.9966919325454651)
No.1:Nb19[4d_x^2-y^2]->O13[2p_z](3.9966919325454651)
No.1:Nb19[4d_x^2-y^2]->O13[2p_x](3.9966919325454651)
No.2:Nb19->O11(2.2084032038961072)
No.2:Nb19[5s]->O11[2s](2.2084032038961072)
No.2:Nb19[5s]->O11[2p_y](2.2084032038961072)
No.2:Nb19[5s]->O11[2p_z](2.2084032038961072)
No.2:Nb19[5s]->O11[2p_x](2.2084032038961072)
No.2:Nb19[4d_xy]->O11[2s](2.2084032038961072)
No.2:Nb19[4d_xy]->O11[2p_y](2.2084032038961072)
No.2:Nb19[4d_xy]->O11[2p_z](2.2084032038961072)
No.2:Nb19[4d_xy]->O11[2p_x](2.2084032038961072)
No.2:Nb19[4d_yz]->O11[2s](2.2084032038961072)
No.2:Nb19[4d_yz]->O11[2p_y](2.2084032038961072)
No.2:Nb19[4d_yz]->O11[2p_z](2.2084032038961072)
No.2:Nb19[4d_yz]->O11[2p_x](2.2084032038961072)
No.2:Nb19[4d_z^2]->O11[2s](2.2084032038961072)
No.2:Nb19[4d_z^2]->O11[2p_y](2.2084032038961072)
No.2:Nb19[4d_z^2]->O11[2p_z](2.2084032038961072)
No.2:Nb19[4d_z^2]->O11[2p_x](2.2084032038961072)
No.2:Nb19[4d_xz]->O11[2s](2.2084032038961072)
No.2:Nb19[4d_xz]->O11[2p_y](2.2084032038961072)
No.2:Nb19[4d_xz]->O11[2p_z](2.2084032038961072)
No.2:Nb19[4d_xz]->O11[2p_x](2.2084032038961072)
No.2:Nb19[4d_x^2-y^2]->O11[2s](2.2084032038961072)
No.2:Nb19[4d_x^2-y^2]->O11[2p_y](2.2084032038961072)
No.2:Nb19[4d_x^2-y^2]->O11[2p_z](2.2084032038961072)
No.2:Nb19[4d_x^2-y^2]->O11[2p_x](2.2084032038961072)
-25.03577   0.00000  -0.06167   0.00000  -0.07085   0.00000  -0.00216   0.00000  -0.00984   0.00000  -0.02057   0.00000  -0.00982   0.00000  -0.00049   0.00000  -0.00022   0.00000  -0.00226   0.00000  -0.00018   0.00000  -0.00002   0.00000  -0.00028   0.00000  -0.01066   0.00000  -0.00116   0.00000   0.00009   0.00000   0.00000   0.00000  -0.00072   0.00000  -0.00001   0.00000  -0.00002   0.00000  -0.00116   0.00000  -0.01077   0.00000  -0.00028   0.00000  -0.00000   0.00000  -0.00016   0.00000  -0.00000   0.00000  -0.00016   0.00000  -1.47102   0.00000   0.00088   0.00000  -0.03056   0.00000  -0.12836   0.00000  -0.11267   0.00000   0.00256   0.00000  -0.00640   0.00000  -0.04571   0.00000  -0.06527   0.00000   0.00056   0.00000  -0.04497   0.00000  -0.03642   0.00000  -0.04255   0.00000   0.00110   0.00000   0.00263   0.00000  -0.00164   0.00000  -0.01115   0.00000  -0.05969   0.00000  -0.14278   0.00000  -0.21867   0.00000  -0.25889   0.00000  -0.04624   0.00000  -0.11463   0.00000  -0.08002   0.00000  -0.03211   0.00000  -0.06105   0.00000  -0.07055   0.00000  -0.00215   0.00000  -0.00984   0.00000  -0.02121   0.00000  -0.00986   0.00000  -0.00049   0.00000  -0.00022   0.00000  -0.00229   0.00000  -0.00019   0.00000  -0.00002   0.00000  -0.00028   0.00000  -0.01022   0.00000  -0.00111   0.00000   0.00009   0.00000   0.00000   0.00000  -0.00066   0.00000  -0.00001   0.00000  -0.00002   0.00000  -0.00111   0.00000  -0.01034   0.00000  -0.00028   0.00000   0.00000   0.00000  -0.00019   0.00000  -0.00000   0.00000  -0.00019   0.00000  -1.45569   0.00000   0.00113   0.00000  -0.03038   0.00000  -0.12803   0.00000  -0.11292   0.00000   0.00257   0.00000  -0.00637   0.00000  -0.04546   0.00000  -0.06521   0.00000   0.00047   0.00000  -0.04413   0.00000  -0.03719   0.00000  -0.04102   0.00000   0.00109   0.00000   0.00262   0.00000  -0.00157   0.00000  -0.01129   0.00000  -0.06036   0.00000  -0.13901   0.00000  -0.21008   0.00000  -0.26262   0.00000  -0.04648   0.00000  -0.11266   0.00000  -0.07630   0.00000  -0.03249
-24.98569   0.00000  -0.06167   0.00000  -0.07085   0.00000  -0.00216   0.00000  -0.00984   0.00000  -0.02057   0.00000  -0.00982   0.00000  -0.00049   0.00000  -0.00022   0.00000  -0.00226   0.00000  -0.00018   0.00000  -0.00002   0.00000  -0.00028   0.00000  -0.01066   0.00000  -0.00116   0.00000   0.00009   0.00000   0.00000   0.00000  -0.00072   0.00000  -0.00001   0.00000  -0.00002   0.00000  -0.00116   0.00000  -0.01077   0.00000  -0.00028   0.00000  -0.00000   0.00000  -0.00016   0.00000  -0.00000   0.00000  -0.00016   0.00000  -1.47102   0.00000   0.00088   0.00000  -0.03056   0.00000  -0.12836   0.00000  -0.11267   0.00000   0.00256   0.00000  -0.00640   0.00000  -0.04571   0.00000  -0.06527   0.00000   0.00056   0.00000  -0.04497   0.00000  -0.03642   0.00000  -0.04255   0.00000   0.00110   0.00000   0.00263   0.00000  -0.00164   0.00000  -0.01115   0.00000  -0.05969   0.00000  -0.14278   0.00000  -0.21867   0.00000  -0.25889   0.00000  -0.04624   0.00000  -0.11463   0.00000  -0.08002   0.00000  -0.03211   0.00000  -0.06105   0.00000  -0.07055   0.00000  -0.00215   0.00000  -0.00984   0.00000  -0.02121   0.00000  -0.00986   0.00000  -0.00049   0.00000  -0.00022   0.00000  -0.00229   0.00000  -0.00019   0.00000  -0.00002   0.00000  -0.00028   0.00000  -0.01022   0.00000  -0.00111   0.00000   0.00009   0.00000   0.00000   0.00000  -0.00066   0.00000  -0.00001   0.00000  -0.00002   0.00000  -0.00111   0.00000  -0.01034   0.00000  -0.00028   0.00000   0.00000   0.00000  -0.00019   0.00000  -0.00000   0.00000  -0.00019   0.00000  -1.45569   0.00000   0.00113   0.00000  -0.03038   0.00000  -0.12803   0.00000  -0.11292   0.00000   0.00257   0.00000  -0.00637   0.00000  -0.04546   0.00000  -0.06521   0.00000   0.00047   0.00000  -0.04413   0.00000  -0.03719   0.00000  -0.04102   0.00000   0.00109   0.00000   0.00262   0.00000  -0.00157   0.00000  -0.01129   0.00000  -0.06036   0.00000  -0.13901   0.00000  -0.21008   0.00000  -0.26262   0.00000  -0.04648   0.00000  -0.11266   0.00000  -0.07630   0.00000  -0.03249
-24.93562   0.00000  -0.06167   0.00000  -0.07085   0.00000  -0.00216   0.00000  -0.00984   0.00000  -0.02057   0.00000  -0.00982   0.00000  -0.00049   0.00000  -0.00022   0.00000  -0.00226   0.00000  -0.00018   0.00000  -0.00002   0.00000  -0.00028   0.00000  -0.01066   0.00000  -0.00116   0.00000   0.00009   0.00000   0.00000   0.00000  -0.00072   0.00000  -0.00001   0.00000  -0.00002   0.00000  -0.00116   0.00000  -0.01077   0.00000  -0.00028   0.00000  -0.00000   0.00000  -0.00016   0.00000  -0.00000   0.00000  -0.00016   0.00000  -1.47102   0.00000   0.00088   0.00000  -0.03056   0.00000  -0.12836   0.00000  -0.11267   0.00000   0.00256   0.00000  -0.00640   0.00000  -0.04571   0.00000  -0.06527   0.00000   0.00056   0.00000  -0.04497   0.00000  -0.03642   0.00000  -0.04255   0.00000   0.00110   0.00000   0.00263   0.00000  -0.00164   0.00000  -0.01115   0.00000  -0.05969   0.00000  -0.14278   0.00000  -0.21867   0.00000  -0.25889   0.00000  -0.04624   0.00000  -0.11463   0.00000  -0.08002   0.00000  -0.03211   0.00000  -0.06105   0.00000  -0.07055   0.00000  -0.00215   0.00000  -0.00984   0.00000  -0.02121   0.00000  -0.00986   0.00000  -0.00049   0.00000  -0.00022   0.00000  -0.00229   0.00000  -0.00019   0.00000  -0.00002   0.00000  -0.00028   0.00000  -0.01022   0.00000  -0.00111   0.00000   0.00009   0.00000   0.00000   0.00000  -0.00066   0.00000  -0.00001   0.00000  -0.00002   0.00000  -0.00111   0.00000  -0.01034   0.00000  -0.00028   0.00000   0.00000   0.00000  -0.00019   0.00000  -0.00000   0.00000  -0.00019   0.00000  -1.45569   0.00000   0.00113   0.00000  -0.03038   0.00000  -0.12803   0.00000  -0.11292   0.00000   0.00257   0.00000  -0.00637   0.00000  -0.04546   0.00000  -0.06521   0.00000   0.00047   0.00000  -0.04413   0.00000  -0.03719   0.00000  -0.04102   0.00000   0.00109   0.00000   0.00262   0.00000  -0.00157   0.00000  -0.01129   0.00000  -0.06036   0.00000  -0.13901   0.00000  -0.21008   0.00000  -0.26262   0.00000  -0.04648   0.00000  -0.11266   0.00000  -0.07630   0.00000  -0.03249
-24.88555   0.00000  -0.06167   0.00000  -0.07085   0.00000  -0.00216   0.00000  -0.00984   0.00000  -0.02057   0.00000  -0.00982   0.00000  -0.00049   0.00000  -0.00022   0.00000  -0.00226   0.00000  -0.00018   0.00000  -0.00002   0.00000  -0.00028   0.00000  -0.01066   0.00000  -0.00116   0.00000   0.00009   0.00000   0.00000   0.00000  -0.00072   0.00000  -0.00001   0.00000  -0.00002   0.00000  -0.00116   0.00000  -0.01077   0.00000  -0.00028   0.00000  -0.00000   0.00000  -0.00016   0.00000  -0.00000   0.00000  -0.00016   0.00000  -1.47102   0.00000   0.00088   0.00000  -0.03056   0.00000  -0.12836   0.00000  -0.11267   0.00000   0.00256   0.00000  -0.00640   0.00000  -0.04571   0.00000  -0.06527   0.00000   0.00056   0.00000  -0.04497   0.00000  -0.03642   0.00000  -0.04255   0.00000   0.00110   0.00000   0.00263   0.00000  -0.00164   0.00000  -0.01115   0.00000  -0.05969   0.00000  -0.14278   0.00000  -0.21867   0.00000  -0.25889   0.00000  -0.04624   0.00000  -0.11463   0.00000  -0.08002   0.00000  -0.03211   0.00000  -0.06105   0.00000  -0.07055   0.00000  -0.00215   0.00000  -0.00984   0.00000  -0.02121   0.00000  -0.00986   0.00000  -0.00049   0.00000  -0.00022   0.00000  -0.00229   0.00000  -0.00019   0.00000  -0.00002   0.00000  -0.00028   0.00000  -0.01022   0.00000  -0.00111   0.00000   0.00009   0.00000   0.00000   0.00000  -0.00066   0.00000  -0.00001   0.00000  -0.00002   0.00000  -0.00111   0.00000  -0.01034   0.00000  -0.00028   0.00000   0.00000   0.00000  -0.00019   0.00000  -0.00000   0.00000  -0.00019   0.00000  -1.45569   0.00000   0.00113   0.00000  -0.03038   0.00000  -0.12803   0.00000  -0.11292   0.00000   0.00257   0.00000  -0.00637   0.00000  -0.04546   0.00000  -0.06521   0.00000   0.00047   0.00000  -0.04413   0.00000  -0.03719   0.00000  -0.04102   0.00000   0.00109   0.00000   0.00262   0.00000  -0.00157   0.00000  -0.01129   0.00000  -0.06036   0.00000  -0.13901   0.00000  -0.21008   0.00000  -0.26262   0.00000  -0.04648   0.00000  -0.11266   0.00000  -0.07630   0.00000  -0.03249
-24.83548   0.00000  -0.06167   0.00000  -0.07085   0.00000  -0.00216   0.00000  -0.00984   0.00000  -0.02057   0.00000  -0.00982   0.00000  -0.00049   0.00000  -0.00022   0.00000  -0.00226   0.00000  -0.00018   0.00000  -0.00002   0.00000  -0.00028   0.00000  -0.01066   0.00000  -0.00116   0.00000   0.00009   0.00000   0.00000   0.00000  -0.00072   0.00000  -0.00001   0.00000  -0.00002   0.00000  -0.00116   0.00000  -0.01077   0.00000  -0.00028   0.00000  -0.00000   0.00000  -0.00016   0.00000  -0.00000   0.00000  -0.00016   0.00000  -1.47102   0.00000   0.00088   0.00000  -0.03056   0.00000  -0.12836   0.00000  -0.11267   0.00000   0.00256   0.00000  -0.00640   0.00000  -0.04571   0.00000  -0.06527   0.00000   0.00056   0.00000  -0.04497   0.00000  -0.03642   0.00000  -0.04255   0.00000   0.00110   0.00000   0.00263   0.00000  -0.00164   0.00000  -0.01115   0.00000  -0.05969   0.00000  -0.14278   0.00000  -0.21867   0.00000  -0.25889   0.00000  -0.04624   0.00000  -0.11463   0.00000  -0.08002   0.00000  -0.03211   0.00000  -0.06105   0.00000  -0.07055   0.00000  -0.00215   0.00000  -0.00984   0.00000  -0.02121   0.00000  -0.00986   0.00000  -0.00049   0.00000  -0.00022   0.00000  -0.00229   0.00000  -0.00019   0.00000  -0.00002   0.00000  -0.00028   0.00000  -0.01022   0.00000  -0.00111   0.00000   0.00009   0.00000   0.00000   0.00000  -0.00066   0.00000  -0.00001   0.00000  -0.00002   0.00000  -0.00111   0.00000  -0.01034   0.00000  -0.00028   0.00000   0.00000   0.00000  -0.00019   0.00000  -0.00000   0.00000  -0.00019   0.00000  -1.45569   0.00000   0.00113   0.00000  -0.03038   0.00000  -0.12803   0.00000  -0.11292   0.00000   0.00257   0.00000  -0.00637   0.00000  -0.04546   0.00000  -0.06521   0.00000   0.00047   0.00000  -0.04413   0.00000  -0.03719   0.00000  -0.04102   0.00000   0.00109   0.00000   0.00262   0.00000  -0.00157   0.00000  -0.01129   0.00000  -0.06036   0.00000  -0.13901   0.00000  -0.21008   0.00000  -0.26262   0.00000  -0.04648   0.00000  -0.11266   0.00000  -0.07630   0.00000  -0.03249
-24.78541   0.00000  -0.06167   0.00000  -0.07085   0.00000  -0.00216   0.00000  -0.00984   0.00000  -0.02057   0.00000  -0.00982   0.00000  -0.00049   0.00000  -0.00022   0.00000  -0.00226   0.00000  -0.00018   0.00000  -0.00002   0.00000  -0.00028   0.00000  -0.01066   0.00000  -0.00116   0.00000   0.00009   0.00000   0.00000   0.00000  -0.00072   0.00000  -0.00001   0.00000  -0.00002   0.00000  -0.00116   0.00000  -0.01077   0.00000  -0.00028   0.00000  -0.00000   0.00000  -0.00016   0.00000  -0.00000   0.00000  -0.00016   0.00000  -1.47102   0.00000   0.00088   0.00000  -0.03056   0.00000  -0.12836   0.00000  -0.11267   0.00000   0.00256   0.00000  -0.00640   0.00000  -0.04571   0.00000  -0.06527   0.00000   0.00056   0.00000  -0.04497   0.00000  -0.03642   0.00000  -0.04255   0.00000   0.00110   0.00000   0.00263   0.00000  -0.00164   0.00000  -0.01115   0.00000  -0.05969   0.00000  -0.14278   0.00000  -0.21867   0.00000  -0.25889   0.00000  -0.04624   0.00000  -0.11463   0.00000  -0.08002   0.00000  -0.03211   0.00000  -0.06105   0.00000  -0.07055   0.00000  -0.00215   0.00000  -0.00984   0.00000  -0.02121   0.00000  -0.00986   0.00000  -0.00049   0.00000  -0.00022   0.00000  -0.00229   0.00000  -0.00019   0.00000  -0.00002   0.00000  -0.00028   0.00000  -0.01022   0.00000  -0.00111   0.00000   0.00009   0.00000   0.00000   0.00000  -0.00066   0.00000  -0.00001   0.00000  -0.00002   0.00000  -0.00111   0.00000  -0.01034   0.00000  -0.00028   0.00000   0.00000   0.00000  -0.00019   0.00000  -0.00000   0.00000  -0.00019   0.00000  -1.45569   0.00000   0.00113   0.00000  -0.03038   0.00000  -0.12803   0.00000  -0.11292   0.00000   0.00257   0.00000  -0.00637   0.00000  -0.04546   0.00000  -0.06521   0.00000   0.00047   0.00000  -0.04413   0.00000  -0.03719   0.00000  -0.04102   0.00000   0.00109   0.00000   0.00262   0.00000  -0.00157   0.00000  -0.01129   0.00000  -0.06036   0.00000  -0.13901   0.00000  -0.21008   0.00000  -0.26262   0.00000  -0.04648   0.00000  -0.11266   0.00000  -0.07630   0.00000  -0.03249
-24.73534   0.00000  -0.06167   0.00000  -0.07085   0.00000  -0.00216   0.00000  -0.00984   0.00000  -0.02057   0.00000  -0.00982   0.00000  -0.00049   0.00000  -0.00022   0.00000  -0.00226   0.00000  -0.00018   0.00000  -0.00002   0.00000  -0.00028   0.00000  -0.01066   0.00000  -0.00116   0.00000   0.00009   0.00000   0.00000   0.00000  -0.00072   0.00000  -0.00001   0.00000  -0.00002   0.00000  -0.00116   0.00000  -0.01077   0.00000  -0.00028   0.00000  -0.00000   0.00000  -0.00016   0.00000  -0.00000   0.00000  -0.00016   0.00000  -1.47102   0.00000   0.00088   0.00000  -0.03056   0.00000  -0.12836   0.00000  -0.11267   0.00000   0.00256   0.00000  -0.00640   0.00000  -0.04571   0.00000  -0.06527   0.00000   0.00056   0.00000  -0.04497   0.00000  -0.03642   0.00000  -0.04255   0.00000   0.00110   0.00000   0.00263   0.00000  -0.00164   0.00000  -0.01115   0.00000  -0.05969   0.00000  -0.14278   0.00000  -0.21867   0.00000  -0.25889   0.00000  -0.04624   0.00000  -0.11463   0.00000  -0.08002   0.00000  -0.03211   0.00000  -0.06105   0.00000  -0.07055   0.00000  -0.00215   0.00000  -0.00984   0.00000  -0.02121   0.00000  -0.00986   0.00000  -0.00049   0.00000  -0.00022   0.00000  -0.00229   0.00000  -0.00019   0.00000  -0.00002   0.00000  -0.00028   0.00000  -0.01022   0.00000  -0.00111   0.00000   0.00009   0.00000   0.00000   0.00000  -0.00066   0.00000  -0.00001   0.00000  -0.00002   0.00000  -0.00111   0.00000  -0.01034   0.00000  -0.00028   0.00000   0.00000   0.00000  -0.00019   0.00000  -0.00000   0.00000  -0.00019   0.00000  -1.45569   0.00000   0.00113   0.00000  -0.03038   0.00000  -0.12803   0.00000  -0.11292   0.00000   0.00257   0.00000  -0.00637   0.00000  -0.04546   0.00000  -0.06521   0.00000   0.00047   0.00000  -0.04413   0.00000  -0.03719   0.00000  -0.04102   0.00000   0.00109   0.00000   0.00262   0.00000  -0.00157   0.00000  -0.01129   0.00000  -0.06036   0.00000  -0.13901   0.00000  -0.21008   0.00000  -0.26262   0.00000  -0.04648   0.00000  -0.11266   0.00000  -0.07630   0.00000  -0.03249
-24.68526   0.00000  -0.06167   0.00000  -0.07085   0.00000  -0.00216   0.00000  -0.00984   0.00000  -0.02057   0.00000  -0.00982   0.00000  -0.00049   0.00000  -0.00022   0.00000  -0.00226   0.00000  -0.00018   0.00000  -0.00002   0.00000  -0.00028   0.00000  -0.01066   0.00000  -0.00116   0.00000   0.00009   0.00000   0.00000   0.00000  -0.00072   0.00000  -0.00001   0.00000  -0.00002   0.00000  -0.00116   0.00000  -0.01077   0.00000  -0.00028   0.00000  -0.00000   0.00000  -0.00016   0.00000  -0.00000   0.00000  -0.00016   0.00000  -1.47102   0.00000   0.00088   0.00000  -0.03056   0.00000  -0.12836   0.00000  -0.11267   0.00000   0.00256   0.00000  -0.00640   0.00000  -0.04571   0.00000  -0.06527   0.00000   0.00056   0.00000  -0.04497   0.00000  -0.03642   0.00000  -0.04255   0.00000   0.00110   0.00000   0.00263   0.00000  -0.00164   0.00000  -0.01115   0.00000  -0.05969   0.00000  -0.14278   0.00000  -0.21867   0.00000  -0.25889   0.00000  -0.04624   0.00000  -0.11463   0.00000  -0.08002   0.00000  -0.03211   0.00000  -0.06105   0.00000  -0.07055   0.00000  -0.00215   0.00000  -0.00984   0.00000  -0.02121   0.00000  -0.00986   0.00000  -0.00049   0.00000  -0.00022   0.00000  -0.00229   0.00000  -0.00019   0.00000  -0.00002   0.00000  -0.00028   0.00000  -0.01022   0.00000  -0.00111   0.00000   0.00009   0.00000   0.00000   0.00000  -0.00066   0.00000  -0.00001   0.00000  -0.00002   0.00000  -0.00111   0.00000  -0.01034   0.00000  -0.00028   0.00000   0.00000   0.00000  -0.00019   0.00000  -0.00000   0.00000  -0.00019   0.00000  -1.45569   0.00000   0.00113   0.00000  -0.03038   0.00000  -0.12803   0.00000  -0.11292   0.00000   0.00257   0.00000  -0.00637   0.00000  -0.04546   0.00000  -0.06521   0.00000   0.00047   0.00000  -0.04413   0.00000  -0.03719   0.00000  -0.04102   0.00000   0.00109   0.00000   0.00262   0.00000  -0.00157   0.00000  -0.01129   0.00000  -0.06036   0.00000  -0.13901   0.00000  -0.21008   0.00000  -0.26262   0.00000  -0.04648   0.00000  -0.11266   0.00000  -0.07630   0.00000  -0.03249
-24.63519   0.00000  -0.06167   0.00000  -0.07085   0.00000  -0.00216   0.00000  -0.00984   0.00000  -0.02057   0.00000  -0.00982   0.00000  -0.00049   0.00000  -0.00022   0.00000  -0.00226   0.00000  -0.00018   0.00000  -0.00002   0.00000  -0.00028   0.00000  -0.01066   0.00000  -0.00116   0.00000   0.00009   0.00000   0.00000   0.00000  -0.00072   0.00000  -0.00001   0.00000  -0.00002   0.00000  -0.00116   0.00000  -0.01077   0.00000  -0.00028   0.00000  -0.00000   0.00000  -0.00016   0.00000  -0.00000   0.00000  -0.00016   0.00000  -1.47102   0.00000   0.00088   0.00000  -0.03056   0.00000  -0.12836   0.00000  -0.11267   0.00000   0.00256   0.00000  -0.00640   0.00000  -0.04571   0.00000  -0.06527   0.00000   0.00056   0.00000  -0.04497   0.00000  -0.03642   0.00000  -0.04255   0.00000   0.00110   0.00000   0.00263   0.00000  -0.00164   0.00000  -0.01115   0.00000  -0.05969   0.00000  -0.14278   0.00000  -0.21867   0.00000  -0.25889   0.00000  -0.04624   0.00000  -0.11463   0.00000  -0.08002   0.00000  -0.03211   0.00000  -0.06105   0.00000  -0.07055   0.00000  -0.00215   0.00000  -0.00984   0.00000  -0.02121   0.00000  -0.00986   0.00000  -0.00049   0.00000  -0.00022   0.00000  -0.00229   0.00000  -0.00019   0.00000  -0.00002   0.00000  -0.00028   0.00000  -0.01022   0.00000  -0.00111   0.00000   0.00009   0.00000   0.00000   0.00000  -0.00066   0.00000  -0.00001   0.00000  -0.00002   0.00000  -0.00111   0.00000  -0.01034   0.00000  -0.00028   0.00000   0.00000   0.00000  -0.00019   0.00000  -0.00000   0.00000  -0.00019   0.00000  -1.45569   0.00000   0.00113   0.00000  -0.03038   0.00000  -0.12803   0.00000  -0.11292   0.00000   0.00257   0.00000  -0.00637   0.00000  -0.04546   0.00000  -0.06521   0.00000   0.00047   0.00000  -0.04413   0.00000  -0.03719   0.00000  -0.04102   0.00000   0.00109   0.00000   0.00262   0.00000  -0.00157   0.00000  -0.01129   0.00000  -0.06036   0.00000  -0.13901   0.00000  -0.21008   0.00000  -0.26262   0.00000  -0.04648   0.00000  -0.11266   0.00000  -0.07630   0.00000  -0.03249
-24.58512   0.00000  -0.06167   0.00000  -0.07085   0.00000  -0.00216   0.00000  -0.00984   0.00000  -0.02057   0.00000  -0.00982   0.00000  -0.00049   0.00000  -0.00022   0.00000  -0.00226   0.00000  -0.00018   0.00000  -0.00002   0.00000  -0.00028   0.00000  -0.01066   0.00000  -0.00116   0.00000   0.00009   0.00000   0.00000   0.00000  -0.00072   0.00000  -0.00001   0.00000  -0.00002   0.00000  -0.00116   0.00000  -0.01077   0.00000  -0.00028   0.00000  -0.00000   0.00000  -0.00016   0.00000  -0.00000   0.00000  -0.00016   0.00000  -1.47102   0.00000   0.00088   0.00000  -0.03056   0.00000  -0.12836   0.00000  -0.11267   0.00000   0.00256   0.00000  -0.00640   0.00000  -0.04571   0.00000  -0.06527   0.00000   0.00056   0.00000  -0.04497   0.00000  -0.03642   0.00000  -0.04255   0.00000   0.00110   0.00000   0.00263   0.00000  -0.00164   0.00000  -0.01115   0.00000  -0.05969   0.00000  -0.14278   0.00000  -0.21867   0.00000  -0.25889   0.00000  -0.04624   0.00000  -0.11463   0.00000  -0.08002   0.00000  -0.03211   0.00000  -0.06105   0.00000  -0.07055   0.00000  -0.00215   0.00000  -0.00984   0.00000  -0.02121   0.00000  -0.00986   0.00000  -0.00049   0.00000  -0.00022   0.00000  -0.00229   0.00000  -0.00019   0.00000  -0.00002   0.00000  -0.00028   0.00000  -0.01022   0.00000  -0.00111   0.00000   0.00009   0.00000   0.00000   0.00000  -0.00066   0.00000  -0.00001   0.00000  -0.00002   0.00000  -0.00111   0.00000  -0.01034   0.00000  -0.00028   0.00000   0.00000   0.00000  -0.00019   0.00000  -0.00000   0.00000  -0.00019   0.00000  -1.45569   0.00000   0.00113   0.00000  -0.03038   0.00000  -0.12803   0.00000  -0.11292   0.00000   0.00257   0.00000  -0.00637   0.00000  -0.04546   0.00000  -0.06521   0.00000   0.00047   0.00000  -0.04413   0.00000  -0.03719   0.00000  -0.04102   0.00000   0.00109   0.00000   0.00262   0.00000  -0.00157   0.00000  -0.01129   0.00000  -0.06036   0.00000  -0.13901   0.00000  -0.21008   0.00000  -0.26262   0.00000  -0.04648   0.00000  -0.11266   0.00000  -0.07630   0.00000  -0.03249
-24.53505   0.00000  -0.06167   0.00000  -0.07085   0.00000  -0.00216   0.00000  -0.00984   0.00000  -0.02057   0.00000  -0.00982   0.00000  -0.00049   0.00000  -0.00022   0.00000  -0.00226   0.00000  -0.00018   0.00000  -0.00002   0.00000  -0.00028   0.00000  -0.01066   0.00000  -0.00116   0.00000   0.00009   0.00000   0.00000   0.00000  -0.00072   0.00000  -0.00001   0.00000  -0.00002   0.00000  -0.00116   0.00000  -0.01077   0.00000  -0.00028   0.00000  -0.00000   0.00000  -0.00016   0.00000  -0.00000   0.00000  -0.00016   0.00000  -1.47102   0.00000   0.00088   0.00000  -0.03056   0.00000  -0.12836   0.00000  -0.11267   0.00000   0.00256   0.00000  -0.00640   0.00000  -0.04571   0.00000  -0.06527   0.00000   0.00056   0.00000  -0.04497   0.00000  -0.03642   0.00000  -0.04255   0.00000   0.00110   0.00000   0.00263   0.00000  -0.00164   0.00000  -0.01115   0.00000  -0.05969   0.00000  -0.14278   0.00000  -0.21867   0.00000  -0.25889   0.00000  -0.04624   0.00000  -0.11463   0.00000  -0.08002   0.00000  -0.03211   0.00000  -0.06105   0.00000  -0.07055   0.00000  -0.00215   0.00000  -0.00984   0.00000  -0.02121   0.00000  -0.00986   0.00000  -0.00049   0.00000  -0.00022   0.00000  -0.00229   0.00000  -0.00019   0.00000  -0.00002   0.00000  -0.00028   0.00000  -0.01022   0.00000  -0.00111   0.00000   0.00009   0.00000   0.00000   0.00000  -0.00066   0.00000  -0.00001   0.00000  -0.00002   0.00000  -0.00111   0.00000  -0.01034   0.00000  -0.00028   0.00000   0.00000   0.00000  -0.00019   0.00000  -0.00000   0.00000  -0.00019   0.00000  -1.45569   0.00000   0.00113   0.00000  -0.03038   0.00000  -0.12803   0.00000  -0.11292   0.00000   0.00257   0.00000  -0.00637   0.00000  -0.04546   0.00000  -0.06521   0.00000   0.00047   0.00000  -0.04413   0.00000  -0.03719   0.00000  -0.04102   0.00000   0.00109   0.00000   0.00262   0.00000  -0.00157   0.00000  -0.01129   0.00000  -0.06036   0.00000  -0.13901   0.00000  -0.21008   0.00000  -0.26262   0.00000  -0.04648   0.00000  -0.11266   0.00000  -0.07630   0.00000  -0.03249
-24.48498   0.00000  -0.06167   0.00000  -0.07085   0.00000  -0.00216   0.00000  -0.00984   0.00000  -0.02057   0.00000  -0.00982   0.00000  -0.00049   0.00000  -0.00022   0.00000  -0.00226   0.00000  -0.00018   0.00000  -0.00002   0.00000  -0.00028   0.00000  -0.01066   0.00000  -0.00116   0.00000   0.00009   0.00000   0.00000   0.00000  -0.00072   0.00000  -0.00001   0.00000  -0.00002   0.00000  -0.00116   0.00000  -0.01077   0.00000  -0.00028   0.00000  -0.00000   0.00000  -0.00016   0.00000  -0.00000   0.00000  -0.00016   0.00000  -1.47102   0.00000   0.00088   0.00000  -0.03056   0.00000  -0.12836   0.00000  -0.11267   0.00000   0.00256   0.00000  -0.00640   0.00000  -0.04571   0.00000  -0.06527   0.00000   0.00056   0.00000  -0.04497   0.00000  -0.03642   0.00000  -0.04255   0.00000   0.00110   0.00000   0.00263   0.00000  -0.00164   0.00000  -0.01115   0.00000  -0.05969   0.00000  -0.14278   0.00000  -0.21867   0.00000  -0.25889   0.00000  -0.04624   0.00000  -0.11463   0.00000  -0.08002   0.00000  -0.03211   0.00000  -0.06105   0.00000  -0.07055   0.00000  -0.00215   0.00000  -0.00984   0.00000  -0.02121   0.00000  -0.00986   0.00000  -0.00049   0.00000  -0.00022   0.00000  -0.00229   0.00000  -0.00019   0.00000  -0.00002   0.00000  -0.00028   0.00000  -0.01022   0.00000  -0.00111   0.00000   0.00009   0.00000   0.00000   0.00000  -0.00066   0.00000  -0.00001   0.00000  -0.00002   0.00000  -0.00111   0.00000  -0.01034   0.00000  -0.00028   0.00000   0.00000   0.00000  -0.00019   0.00000  -0.00000   0.00000  -0.00019   0.00000  -1.45569   0.00000   0.00113   0.00000  -0.03038   0.00000  -0.12803   0.00000  -0.11292   0.00000   0.00257   0.00000  -0.00637   0.00000  -0.04546   0.00000  -0.06521   0.00000   0.00047   0.00000  -0.04413   0.00000  -0.03719   0.00000  -0.04102   0.00000   0.00109   0.00000   0.00262   0.00000  -0.00157   0.00000  -0.01129   0.00000  -0.06036   0.00000  -0.13901   0.00000  -0.21008   0.00000  -0.26262   0.00000  -0.04648   0.00000  -0.11266   0.00000  -0.07630   0.00000  -0.03249
-24.43491   0.00000  -0.06167   0.00000  -0.07085   0.00000  -0.00216   0.00000  -0.00984   0.00000  -0.02057   0.00000  -0.00982   0.00000  -0.00049   0.00000  -0.00022   0.00000  -0.00226   0.00000  -0.00018   0.00000  -0.00002   0.00000  -0.00028   0.00000  -0.01066   0.00000  -0.00116   0.00000   0.00009   0.00000   0.00000   0.00000  -0.00072   0.00000  -0.00001   0.00000  -0.00002   0.00000  -0.00116   0.00000  -0.01077   0.00000  -0.00028   0.00000  -0.00000   0.00000  -0.00016   0.00000  -0.00000   0.00000  -0.00016   0.00000  -1.47102   0.00000   0.00088   0.00000  -0.03056   0.00000  -0.12836   0.00000  -0.11267   0.00000   0.00256   0.00000  -0.00640   0.00000  -0.04571   0.00000  -0.06527   0.00000   0.00056   0.00000  -0.04497   0.00000  -0.03642   0.00000  -0.04255   0.00000   0.00110   0.00000   0.00263   0.00000  -0.00164   0.00000  -0.01115   0.00000  -0.05969   0.00000  -0.14278   0.00000  -0.21867   0.00000  -0.25889   0.00000  -0.04624   0.00000  -0.11463   0.00000  -0.08002   0.00000  -0.03211   0.00000  -0.06105   0.00000  -0.07055   0.00000  -0.00215   0.00000  -0.00984   0.00000  -0.02121   0.00000  -0.00986   0.00000  -0.00049   0.00000  -0.00022   0.00000  -0.00229   0.00000  -0.00019   0.00000  -0.00002   0.00000  -0.00028   0.00000  -0.01022   0.00000  -0.00111   0.00000   0.00009   0.00000   0.00000   0.00000  -0.00066   0.00000  -0.00001   0.00000  -0.00002   0.00000  -0.00111   0.00000  -0.01034   0.00000  -0.00028   0.00000   0.00000   0.00000  -0.00019   0.00000  -0.00000   0.00000  -0.00019   0.00000  -1.45569   0.00000   0.00113   0.00000  -0.03038   0.00000  -0.12803   0.00000  -0.11292   0.00000   0.00257   0.00000  -0.00637   0.00000  -0.04546   0.00000  -0.06521   0.00000   0.00047   0.00000  -0.04413   0.00000  -0.03719   0.00000  -0.04102   0.00000   0.00109   0.00000   0.00262   0.00000  -0.00157   0.00000  -0.01129   0.00000  -0.06036   0.00000  -0.13901   0.00000  -0.21008   0.00000  -0.26262   0.00000  -0.04648   0.00000  -0.11266   0.00000  -0.07630   0.00000  -0.03249