ESCALE ; pCOHP file generated by LOBSTER. Energy is shifted such that the Fermi level lies at 0 eV.
        26          2        801  -2.41311e+01   1.59189e+01   9.00167e-01 
Average
No.1:Sc1->O3(2.0918429296720222)
No.1:Sc1[4s]->O3[2s](2.0918429296720222)
No.1:Sc1[4s]->O3[2p_y](2.0918429296720222)
No.1:Sc1[4s]->O3[2p_z](2.0918429296720222)
No.1:Sc1[4s]->O3[2p_x](2.0918429296720222)
No.1:Sc1[3d_xy]->O3[2s](2.0918429296720222)
No.1:Sc1[3d_xy]->O3[2p_y](2.0918429296720222)
No.1:Sc1[3d_xy]->O3[2p_z](2.0918429296720222)
No.1:Sc1[3d_xy]->O3[2p_x](2.0918429296720222)
No.1:Sc1[3d_yz]->O3[2s](2.0918429296720222)
No.1:Sc1[3d_yz]->O3[2p_y](2.0918429296720222)
No.1:Sc1[3d_yz]->O3[2p_z](2.0918429296720222)
No.1:Sc1[3d_yz]->O3[2p_x](2.0918429296720222)
No.1:Sc1[3d_z^2]->O3[2s](2.0918429296720222)
No.1:Sc1[3d_z^2]->O3[2p_y](2.0918429296720222)
No.1:Sc1[3d_z^2]->O3[2p_z](2.0918429296720222)
No.1:Sc1[3d_z^2]->O3[2p_x](2.0918429296720222)
No.1:Sc1[3d_xz]->O3[2s](2.0918429296720222)
No.1:Sc1[3d_xz]->O3[2p_y](2.0918429296720222)
No.1:Sc1[3d_xz]->O3[2p_z](2.0918429296720222)
No.1:Sc1[3d_xz]->O3[2p_x](2.0918429296720222)
No.1:Sc1[3d_x^2-y^2]->O3[2s](2.0918429296720222)
No.1:Sc1[3d_x^2-y^2]->O3[2p_y](2.0918429296720222)
No.1:Sc1[3d_x^2-y^2]->O3[2p_z](2.0918429296720222)
No.1:Sc1[3d_x^2-y^2]->O3[2p_x](2.0918429296720222)
-25.03129   0.00000  -0.22332   0.00000  -2.79150   0.00000  -0.20002   0.00000   0.00000   0.00000  -0.62664   0.00000   0.00000   0.00000  -0.00148   0.00000  -0.00000   0.00000  -0.00250   0.00000  -0.00000   0.00000   0.00000   0.00000  -0.16425   0.00000  -0.00003   0.00000  -0.00150   0.00000   0.00467   0.00000   0.00000   0.00000  -1.63397   0.00000   0.00000   0.00000  -0.00000   0.00000  -0.00149   0.00000  -0.00008   0.00000  -0.16421   0.00000  -0.00000   0.00000  -0.00000   0.00000  -0.00000   0.00000  -0.00001   0.00000  -0.25050   0.00000  -3.13123   0.00000  -0.21810   0.00000   0.00000   0.00000  -0.64486   0.00000  -0.00000   0.00000  -0.00162   0.00000  -0.00000   0.00000  -0.00211   0.00000  -0.00000   0.00000  -0.00000   0.00000  -0.26756   0.00000  -0.00011   0.00000  -0.00969   0.00000   0.00228   0.00000   0.00000   0.00000  -1.71076   0.00000  -0.00000   0.00000  -0.00000   0.00000  -0.00994   0.00000  -0.00014   0.00000  -0.26862   0.00000  -0.00000   0.00000  -0.00000   0.00000   0.00000   0.00000  -0.00000
-24.98123  -0.00003  -0.22332  -0.00035  -2.79152  -0.00001  -0.20002  -0.00000   0.00000  -0.00001  -0.62664   0.00000   0.00000   0.00000  -0.00148  -0.00000  -0.00000  -0.00000  -0.00250  -0.00000  -0.00000   0.00000   0.00000  -0.00013  -0.16425  -0.00000  -0.00003   0.00001  -0.00150   0.00000   0.00467   0.00000   0.00000  -0.00009  -1.63398  -0.00000   0.00000   0.00000  -0.00000   0.00000  -0.00149  -0.00000  -0.00008  -0.00013  -0.16421  -0.00000  -0.00000   0.00000  -0.00000   0.00000  -0.00000  -0.00000  -0.00001  -0.00001  -0.25050  -0.00018  -3.13123  -0.00001  -0.21810   0.00000   0.00000  -0.00000  -0.64486  -0.00000  -0.00000   0.00000  -0.00162  -0.00000  -0.00000  -0.00000  -0.00211  -0.00000  -0.00000  -0.00000  -0.00000  -0.00007  -0.26756  -0.00000  -0.00011   0.00000  -0.00969   0.00000   0.00228   0.00000   0.00000  -0.00003  -1.71077   0.00000  -0.00000   0.00000  -0.00000   0.00000  -0.00994  -0.00000  -0.00014  -0.00007  -0.26862  -0.00000  -0.00000   0.00000  -0.00000   0.00000   0.00000  -0.00000  -0.00000
-24.93116  -0.00001  -0.22332  -0.00008  -2.79152  -0.00000  -0.20002  -0.00000   0.00000  -0.00000  -0.62664   0.00000   0.00000   0.00000  -0.00148  -0.00000  -0.00000  -0.00000  -0.00250  -0.00000  -0.00000   0.00000   0.00000  -0.00003  -0.16425  -0.00000  -0.00003   0.00000  -0.00150   0.00000   0.00467   0.00000   0.00000  -0.00002  -1.63398  -0.00000   0.00000   0.00000  -0.00000   0.00000  -0.00149  -0.00000  -0.00008  -0.00003  -0.16422  -0.00000  -0.00000   0.00000  -0.00000   0.00000  -0.00000  -0.00000  -0.00001  -0.00000  -0.25050  -0.00004  -3.13124  -0.00000  -0.21810   0.00000   0.00000  -0.00000  -0.64486  -0.00000  -0.00000   0.00000  -0.00162  -0.00000  -0.00000  -0.00000  -0.00211  -0.00000  -0.00000  -0.00000  -0.00000  -0.00002  -0.26756  -0.00000  -0.00011   0.00000  -0.00969   0.00000   0.00228   0.00000   0.00000  -0.00001  -1.71077   0.00000  -0.00000   0.00000  -0.00000   0.00000  -0.00994  -0.00000  -0.00014  -0.00002  -0.26862  -0.00000  -0.00000   0.00000  -0.00000   0.00000   0.00000  -0.00000  -0.00000
-24.88110  -0.00000  -0.22332  -0.00002  -2.79152  -0.00000  -0.20002  -0.00000   0.00000  -0.00000  -0.62664   0.00000   0.00000   0.00000  -0.00148  -0.00000  -0.00000  -0.00000  -0.00250  -0.00000  -0.00000   0.00000   0.00000  -0.00001  -0.16426  -0.00000  -0.00003   0.00000  -0.00150   0.00000   0.00467   0.00000   0.00000  -0.00000  -1.63398  -0.00000   0.00000   0.00000  -0.00000   0.00000  -0.00149  -0.00000  -0.00008  -0.00001  -0.16422  -0.00000  -0.00000   0.00000  -0.00000   0.00000  -0.00000  -0.00000  -0.00001  -0.00000  -0.25050  -0.00001  -3.13124  -0.00000  -0.21810   0.00000   0.00000  -0.00000  -0.64486  -0.00000  -0.00000   0.00000  -0.00162  -0.00000  -0.00000  -0.00000  -0.00211  -0.00000  -0.00000  -0.00000  -0.00000  -0.00000  -0.26756  -0.00000  -0.00011   0.00000  -0.00969   0.00000   0.00228   0.00000   0.00000  -0.00000  -1.71077   0.00000  -0.00000   0.00000  -0.00000   0.00000  -0.00994  -0.00000  -0.00014  -0.00000  -0.26862  -0.00000  -0.00000   0.00000  -0.00000   0.00000   0.00000  -0.00000  -0.00000
-24.83104  -0.00000  -0.22332  -0.00000  -2.79152  -0.00000  -0.20002  -0.00000   0.00000  -0.00000  -0.62664   0.00000   0.00000   0.00000  -0.00148  -0.00000  -0.00000  -0.00000  -0.00250   0.00000  -0.00000   0.00000   0.00000  -0.00000  -0.16426  -0.00000  -0.00003   0.00000  -0.00150   0.00000   0.00467   0.00000   0.00000  -0.00000  -1.63398  -0.00000   0.00000   0.00000  -0.00000   0.00000  -0.00149  -0.00000  -0.00008  -0.00000  -0.16422  -0.00000  -0.00000   0.00000  -0.00000   0.00000  -0.00000  -0.00000  -0.00001  -0.00000  -0.25050  -0.00000  -3.13124  -0.00000  -0.21810   0.00000   0.00000  -0.00000  -0.64486  -0.00000  -0.00000   0.00000  -0.00162  -0.00000  -0.00000  -0.00000  -0.00211  -0.00000  -0.00000  -0.00000  -0.00000  -0.00000  -0.26756  -0.00000  -0.00011   0.00000  -0.00969   0.00000   0.00228   0.00000   0.00000  -0.00000  -1.71077   0.00000  -0.00000   0.00000  -0.00000   0.00000  -0.00994  -0.00000  -0.00014  -0.00000  -0.26862  -0.00000  -0.00000   0.00000  -0.00000   0.00000   0.00000  -0.00000  -0.00000
-24.78098  -0.00000  -0.22332  -0.00000  -2.79152  -0.00000  -0.20002  -0.00000   0.00000  -0.00000  -0.62664   0.00000   0.00000   0.00000  -0.00148  -0.00000  -0.00000  -0.00000  -0.00250   0.00000  -0.00000   0.00000   0.00000  -0.00000  -0.16426  -0.00000  -0.00003   0.00000  -0.00150   0.00000   0.00467   0.00000   0.00000  -0.00000  -1.63398  -0.00000   0.00000   0.00000  -0.00000   0.00000  -0.00149  -0.00000  -0.00008  -0.00000  -0.16422  -0.00000  -0.00000   0.00000  -0.00000   0.00000  -0.00000  -0.00000  -0.00001  -0.00000  -0.25050  -0.00000  -3.13124  -0.00000  -0.21810   0.00000   0.00000  -0.00000  -0.64486  -0.00000  -0.00000   0.00000  -0.00162  -0.00000  -0.00000  -0.00000  -0.00211  -0.00000  -0.00000  -0.00000  -0.00000  -0.00000  -0.26756  -0.00000  -0.00011   0.00000  -0.00969   0.00000   0.00228   0.00000   0.00000  -0.00000  -1.71077   0.00000  -0.00000   0.00000  -0.00000   0.00000  -0.00994  -0.00000  -0.00014  -0.00000  -0.26862  -0.00000  -0.00000   0.00000  -0.00000   0.00000   0.00000  -0.00000  -0.00000
-24.73091  -0.00000  -0.22332  -0.00000  -2.79152  -0.00000  -0.20002  -0.00000   0.00000  -0.00000  -0.62664   0.00000   0.00000   0.00000  -0.00148  -0.00000  -0.00000  -0.00000  -0.00250   0.00000  -0.00000   0.00000   0.00000  -0.00000  -0.16426  -0.00000  -0.00003   0.00000  -0.00150   0.00000   0.00467   0.00000   0.00000  -0.00000  -1.63398  -0.00000   0.00000   0.00000  -0.00000   0.00000  -0.00149  -0.00000  -0.00008  -0.00000  -0.16422  -0.00000  -0.00000   0.00000  -0.00000   0.00000  -0.00000  -0.00000  -0.00001  -0.00000  -0.25050  -0.00000  -3.13124  -0.00000  -0.21810   0.00000   0.00000  -0.00000  -0.64486  -0.00000  -0.00000   0.00000  -0.00162  -0.00000  -0.00000  -0.00000  -0.00211  -0.00000  -0.00000  -0.00000  -0.00000  -0.00000  -0.26756  -0.00000  -0.00011   0.00000  -0.00969   0.00000   0.00228   0.00000   0.00000  -0.00000  -1.71077   0.00000  -0.00000   0.00000  -0.00000   0.00000  -0.00994  -0.00000  -0.00014  -0.00000  -0.26862  -0.00000  -0.00000   0.00000  -0.00000   0.00000   0.00000  -0.00000  -0.00000
-24.68085  -0.00000  -0.22332  -0.00000  -2.79152  -0.00000  -0.20002  -0.00000   0.00000  -0.00000  -0.62664   0.00000   0.00000   0.00000  -0.00148  -0.00000  -0.00000  -0.00000  -0.00250   0.00000  -0.00000   0.00000   0.00000  -0.00000  -0.16426  -0.00000  -0.00003   0.00000  -0.00150   0.00000   0.00467   0.00000   0.00000  -0.00000  -1.63398  -0.00000   0.00000   0.00000  -0.00000   0.00000  -0.00149  -0.00000  -0.00008  -0.00000  -0.16422  -0.00000  -0.00000   0.00000  -0.00000   0.00000  -0.00000  -0.00000  -0.00001  -0.00000  -0.25050  -0.00000  -3.13124  -0.00000  -0.21810   0.00000   0.00000  -0.00000  -0.64486  -0.00000  -0.00000   0.00000  -0.00162  -0.00000  -0.00000  -0.00000  -0.00211  -0.00000  -0.00000  -0.00000  -0.00000  -0.00000  -0.26756  -0.00000  -0.00011   0.00000  -0.00969   0.00000   0.00228   0.00000   0.00000  -0.00000  -1.71077   0.00000  -0.00000   0.00000  -0.00000   0.00000  -0.00994  -0.00000  -0.00014  -0.00000  -0.26862  -0.00000  -0.00000   0.00000  -0.00000   0.00000   0.00000  -0.00000  -0.00000
-24.63079  -0.00000  -0.22332  -0.00000  -2.79152  -0.00000  -0.20002  -0.00000   0.00000  -0.00000  -0.62664   0.00000   0.00000   0.00000  -0.00148   0.00000  -0.00000  -0.00000  -0.00250   0.00000  -0.00000   0.00000   0.00000  -0.00000  -0.16426  -0.00000  -0.00003   0.00000  -0.00150   0.00000   0.00467   0.00000   0.00000  -0.00000  -1.63398  -0.00000   0.00000   0.00000  -0.00000   0.00000  -0.00149  -0.00000  -0.00008  -0.00000  -0.16422  -0.00000  -0.00000   0.00000  -0.00000   0.00000  -0.00000  -0.00000  -0.00001  -0.00000  -0.25050  -0.00000  -3.13124  -0.00000  -0.21810   0.00000   0.00000  -0.00000  -0.64486  -0.00000  -0.00000   0.00000  -0.00162  -0.00000  -0.00000  -0.00000  -0.00211  -0.00000  -0.00000  -0.00000  -0.00000  -0.00000  -0.26756  -0.00000  -0.00011   0.00000  -0.00969   0.00000   0.00228   0.00000   0.00000  -0.00000  -1.71077   0.00000  -0.00000   0.00000  -0.00000   0.00000  -0.00994  -0.00000  -0.00014  -0.00000  -0.26862  -0.00000  -0.00000   0.00000  -0.00000   0.00000   0.00000  -0.00000  -0.00000
-24.58073  -0.00000  -0.22332  -0.00000  -2.79152  -0.00000  -0.20002  -0.00000   0.00000  -0.00000  -0.62664   0.00000   0.00000   0.00000  -0.00148   0.00000  -0.00000  -0.00000  -0.00250   0.00000  -0.00000   0.00000   0.00000  -0.00000  -0.16426  -0.00000  -0.00003   0.00000  -0.00150   0.00000   0.00467   0.00000   0.00000  -0.00000  -1.63398  -0.00000   0.00000   0.00000  -0.00000   0.00000  -0.00149  -0.00000  -0.00008  -0.00000  -0.16422  -0.00000  -0.00000   0.00000  -0.00000   0.00000  -0.00000  -0.00000  -0.00001  -0.00000  -0.25050  -0.00000  -3.13124  -0.00000  -0.21810   0.00000   0.00000  -0.00000  -0.64486  -0.00000  -0.00000   0.00000  -0.00162  -0.00000  -0.00000  -0.00000  -0.00211  -0.00000  -0.00000  -0.00000  -0.00000  -0.00000  -0.26756  -0.00000  -0.00011   0.00000  -0.00969   0.00000   0.00228   0.00000   0.00000  -0.00000  -1.71077   0.00000  -0.00000   0.00000  -0.00000   0.00000  -0.00994  -0.00000  -0.00014  -0.00000  -0.26862  -0.00000  -0.00000   0.00000  -0.00000   0.00000   0.00000  -0.00000  -0.00000
-24.53066  -0.00000  -0.22332  -0.00000  -2.79152  -0.00000  -0.20002  -0.00000   0.00000  -0.00000  -0.62664   0.00000   0.00000   0.00000  -0.00148   0.00000  -0.00000  -0.00000  -0.00250   0.00000  -0.00000   0.00000   0.00000  -0.00000  -0.16426  -0.00000  -0.00003   0.00000  -0.00150   0.00000   0.00467   0.00000   0.00000  -0.00000  -1.63398  -0.00000   0.00000   0.00000  -0.00000   0.00000  -0.00149  -0.00000  -0.00008  -0.00000  -0.16422  -0.00000  -0.00000   0.00000  -0.00000   0.00000  -0.00000  -0.00000  -0.00001  -0.00000  -0.25050  -0.00000  -3.13124  -0.00000  -0.21810   0.00000   0.00000  -0.00000  -0.64486  -0.00000  -0.00000   0.00000  -0.00162  -0.00000  -0.00000  -0.00000  -0.00211  -0.00000  -0.00000  -0.00000  -0.00000  -0.00000  -0.26756  -0.00000  -0.00011   0.00000  -0.00969   0.00000   0.00228   0.00000   0.00000  -0.00000  -1.71077   0.00000  -0.00000   0.00000  -0.00000   0.00000  -0.00994  -0.00000  -0.00014  -0.00000  -0.26862  -0.00000  -0.00000   0.00000  -0.00000   0.00000   0.00000  -0.00000  -0.00000
-24.48060  -0.00000  -0.22332  -0.00000  -2.79152  -0.00000  -0.20002  -0.00000   0.00000  -0.00000  -0.62664   0.00000   0.00000   0.00000  -0.00148   0.00000  -0.00000  -0.00000  -0.00250   0.00000  -0.00000   0.00000   0.00000  -0.00000  -0.16426  -0.00000  -0.00003   0.00000  -0.00150   0.00000   0.00467   0.00000   0.00000  -0.00000  -1.63398  -0.00000   0.00000   0.00000  -0.00000   0.00000  -0.00149  -0.00000  -0.00008  -0.00000  -0.16422  -0.00000  -0.00000   0.00000  -0.00000   0.00000  -0.00000  -0.00000  -0.00001  -0.00000  -0.25050  -0.00000  -3.13124  -0.00000  -0.21810   0.00000   0.00000  -0.00000  -0.64486  -0.00000  -0.00000   0.00000  -0.00162  -0.00000  -0.00000  -0.00000  -0.00211   0.00000  -0.00000  -0.00000  -0.00000  -0.00000  -0.26756  -0.00000  -0.00011   0.00000  -0.00969   0.00000   0.00228   0.00000   0.00000  -0.00000  -1.71077   0.00000  -0.00000   0.00000  -0.00000   0.00000  -0.00994  -0.00000  -0.00014  -0.00000  -0.26862  -0.00000  -0.00000   0.00000  -0.00000   0.00000   0.00000  -0.00000  -0.00000
-24.43054  -0.00000  -0.22332  -0.00000  -2.79152  -0.00000  -0.20002  -0.00000   0.00000  -0.00000  -0.62664   0.00000   0.00000   0.00000  -0.00148   0.00000  -0.00000  -0.00000  -0.00250   0.00000  -0.00000   0.00000   0.00000  -0.00000  -0.16426  -0.00000  -0.00003   0.00000  -0.00150   0.00000   0.00467   0.00000   0.00000  -0.00000  -1.63398  -0.00000   0.00000   0.00000  -0.00000   0.00000  -0.00149  -0.00000  -0.00008  -0.00000  -0.16422  -0.00000  -0.00000   0.00000  -0.00000   0.00000  -0.00000  -0.00000  -0.00001  -0.00000  -0.25050  -0.00000  -3.13124  -0.00000  -0.21810  -0.00000   0.00000   0.00000  -0.64486  -0.00000  -0.00000   0.00000  -0.00162   0.00000  -0.00000  -0.00000  -0.00211   0.00000  -0.00000  -0.00000  -0.00000  -0.00000  -0.26756   0.00000  -0.00011   0.00000  -0.00969   0.00000   0.00228  -0.00000   0.00000   0.00000  -1.71077   0.00000  -0.00000   0.00000  -0.00000   0.00000  -0.00994  -0.00000  -0.00014  -0.00000  -0.26862  -0.00000  -0.00000   0.00000  -0.00000   0.00000   0.00000  -0.00000  -0.00000
-24.38048  -0.00000  -0.22332  -0.00000  -2.79152   0.00000  -0.20002  -0.00000   0.00000   0.00000  -0.62664  -0.00000   0.00000   0.00000  -0.00148  -0.00000  -0.00000   0.00000  -0.00250  -0.00000  -0.00000   0.00000   0.00000  -0.00000  -0.16426   0.00000  -0.00003   0.00000  -0.00150   0.00000   0.00467   0.00000   0.00000   0.00000  -1.63398  -0.00000   0.00000   0.00000  -0.00000   0.00000  -0.00149  -0.00000  -0.00008  -0.00000  -0.16422  -0.00000  -0.00000   0.00000  -0.00000   0.00000  -0.00000  -0.00000  -0.00001  -0.00000  -0.25050  -0.00000  -3.13124   0.00000  -0.21810   0.00000   0.00000   0.00000  -0.64486  -0.00000  -0.00000   0.00000  -0.00162   0.00000  -0.00000   0.00000  -0.00211  -0.00000  -0.00000   0.00000  -0.00000   0.00000  -0.26756   0.00000  -0.00011   0.00000  -0.00969   0.00000   0.00228   0.00000   0.00000   0.00000  -1.71077  -0.00000  -0.00000   0.00000  -0.00000   0.00000  -0.00994  -0.00000  -0.00014  -0.00000  -0.26862  -0.00000  -0.00000   0.00000  -0.00000   0.00000   0.00000  -0.00000  -0.00000
-24.33041  -0.00000  -0.22332  -0.00000  -2.79152   0.00000  -0.20002   0.00000   0.00000   0.00000  -0.62664  -0.00000   0.00000   0.00000  -0.00148   0.00000  -0.00000   0.00000  -0.00250   0.00000  -0.00000  -0.00000   0.00000   0.00000  -0.16426   0.00000  -0.00003   0.00000  -0.00150   0.00000   0.00467  -0.00000   0.00000   0.00000  -1.63398  -0.00000   0.00000  -0.00000  -0.00000   0.00000  -0.00149   0.00000  -0.00008   0.00000  -0.16422   0.00000  -0.00000   0.00000  -0.00000   0.00000  -0.00000  -0.00000  -0.00001   0.00000  -0.25050   0.00000  -3.13124   0.00000  -0.21810   0.00000   0.00000   0.00000  -0.64486   0.00000  -0.00000   0.00000  -0.00162   0.00000  -0.00000   0.00000  -0.00211   0.00000  -0.00000   0.00000  -0.00000   0.00000  -0.26756   0.00000  -0.00011   0.00000  -0.00969   0.00000   0.00228   0.00000   0.00000   0.00000  -1.71077   0.00000  -0.00000   0.00000  -0.00000   0.00000  -0.00994   0.00000  -0.00014   0.00000  -0.26862   0.00000  -0.00000  -0.00000  -0.00000   0.00000   0.00000   0.00000  -0.00000
-24.28035   0.00000  -0.22332   0.00000  -2.79152   0.00000  -0.20002   0.00000   0.00000   0.00000  -0.62664   0.00000   0.00000   0.00000  -0.00148   0.00000  -0.00000   0.00000  -0.00250   0.00000  -0.00000   0.00000   0.00000   0.00000  -0.16426   0.00000  -0.00003   0.00000  -0.00150   0.00000   0.00467   0.00000   0.00000   0.00000  -1.63398   0.00000   0.00000   0.00000  -0.00000   0.00000  -0.00149   0.00000  -0.00008   0.00000  -0.16422   0.00000  -0.00000   0.00000  -0.00000   0.00000  -0.00000   0.00000  -0.00001   0.00000  -0.25050   0.00000  -3.13124   0.00000  -0.21810   0.00000   0.00000   0.00000  -0.64486   0.00000  -0.00000   0.00000  -0.00162   0.00000  -0.00000   0.00000  -0.00211   0.00000  -0.00000   0.00000  -0.00000   0.00000  -0.26756   0.00000  -0.00011   0.00000  -0.00969   0.00000   0.00228   0.00000   0.00000   0.00000  -1.71077   0.00000  -0.00000   0.00000  -0.00000   0.00000  -0.00994   0.00000  -0.00014   0.00000  -0.26862   0.00000  -0.00000   0.00000  -0.00000   0.00000   0.00000   0.00000  -0.00000
-24.23029   0.00000  -0.22332   0.00000  -2.79152   0.00000  -0.20002   0.00000   0.00000   0.00000  -0.62664   0.00000   0.00000   0.00000  -0.00148   0.00000  -0.00000   0.00000  -0.00250   0.00000  -0.00000   0.00000   0.00000   0.00000  -0.16426   0.00000  -0.00003   0.00000  -0.00150   0.00000   0.00467   0.00000   0.00000   0.00000  -1.63398   0.00000   0.00000   0.00000  -0.00000   0.00000  -0.00149   0.00000  -0.00008   0.00000  -0.16422   0.00000  -0.00000   0.00000  -0.00000   0.00000  -0.00000   0.00000  -0.00001   0.00000  -0.25050   0.00000  -3.13124   0.00000  -0.21810   0.00000   0.00000   0.00000  -0.64486   0.00000  -0.00000   0.00000  -0.00162   0.00000  -0.00000   0.00000  -0.00211   0.00000  -0.00000   0.00000  -0.00000   0.00000  -0.26756   0.00000  -0.00011   0.00000  -0.00969   0.00000   0.00228   0.00000   0.00000   0.00000  -1.71077   0.00000  -0.00000   0.00000  -0.00000   0.00000  -0.00994   0.00000  -0.00014   0.00000  -0.26862   0.00000  -0.00000   0.00000  -0.00000   0.00000   0.00000   0.00000  -0.00000
-24.18023   0.00000  -0.22332   0.00000  -2.79152   0.00000  -0.20002   0.00000   0.00000   0.00000  -0.62664   0.00000   0.00000   0.00000  -0.00148   0.00000  -0.00000   0.00000  -0.00250   0.00000  -0.00000   0.00000   0.00000   0.00000  -0.16426   0.00000  -0.00003   0.00000  -0.00150   0.00000   0.00467   0.00000   0.00000   0.00000  -1.63398   0.00000   0.00000   0.00000  -0.00000   0.00000  -0.00149   0.00000  -0.00008   0.00000  -0.16422   0.00000  -0.00000   0.00000  -0.00000   0.00000  -0.00000   0.00000  -0.00001   0.00000  -0.25050   0.00000  -3.13124   0.00000  -0.21810   0.00000   0.00000   0.00000  -0.64486   0.00000  -0.00000   0.00000  -0.00162   0.00000  -0.00000   0.00000  -0.00211   0.00000  -0.00000   0.00000  -0.00000   0.00000  -0.26756   0.00000  -0.00011   0.00000  -0.00969   0.00000   0.00228   0.00000   0.00000   0.00000  -1.71077   0.00000  -0.00000   0.00000  -0.00000   0.00000  -0.00994   0.00000  -0.00014   0.00000  -0.26862   0.00000  -0.00000   0.00000  -0.00000   0.00000   0.00000   0.00000  -0.00000
-24.13016   0.00000  -0.22332   0.00000  -2.79152   0.00000  -0.20002   0.00000   0.00000   0.00000  -0.62664   0.00000   0.00000   0.00000  -0.00148   0.00000  -0.00000   0.00000  -0.00250   0.00000  -0.00000   0.00000   0.00000   0.00000  -0.16426   0.00000  -0.00003   0.00000  -0.00150   0.00000   0.00467   0.00000   0.00000   0.00000  -1.63398   0.00000   0.00000   0.00000  -0.00000   0.00000  -0.00149   0.00000  -0.00008   0.00000  -0.16422   0.00000  -0.00000   0.00000  -0.00000   0.00000  -0.00000   0.00000  -0.00001   0.00000  -0.25050   0.00000  -3.13124   0.00000  -0.21810   0.00000   0.00000   0.00000  -0.64486   0.00000  -0.00000   0.00000  -0.00162   0.00000  -0.00000   0.00000  -0.00211   0.00000  -0.00000   0.00000  -0.00000   0.00000  -0.26756   0.00000  -0.00011   0.00000  -0.00969   0.00000   0.00228   0.00000   0.00000   0.00000  -1.71077   0.00000  -0.00000   0.00000  -0.00000   0.00000  -0.00994   0.00000  -0.00014   0.00000  -0.26862   0.00000  -0.00000   0.00000  -0.00000   0.00000   0.00000   0.00000  -0.00000
-24.08010   0.00000  -0.22332   0.00000  -2.79152   0.00000  -0.20002   0.00000   0.00000   0.00000  -0.62664   0.00000   0.00000   0.00000  -0.00148   0.00000  -0.00000   0.00000  -0.00250   0.00000  -0.00000   0.00000   0.00000   0.00000  -0.16426   0.00000  -0.00003   0.00000  -0.00150   0.00000   0.00467   0.00000   0.00000   0.00000  -1.63398   0.00000   0.00000   0.00000  -0.00000   0.00000  -0.00149   0.00000  -0.00008   0.00000  -0.16422   0.00000  -0.00000   0.00000  -0.00000   0.00000  -0.00000   0.00000  -0.00001   0.00000  -0.25050   0.00000  -3.13124   0.00000  -0.21810   0.00000   0.00000   0.00000  -0.64486   0.00000  -0.00000   0.00000  -0.00162   0.00000  -0.00000   0.00000  -0.00211   0.00000  -0.00000   0.00000  -0.00000   0.00000  -0.26756   0.00000  -0.00011   0.00000  -0.00969   0.00000   0.00228   0.00000   0.00000   0.00000  -1.71077   0.00000  -0.00000   0.00000  -0.00000   0.00000  -0.00994   0.00000  -0.00014   0.00000  -0.26862   0.00000  -0.00000   0.00000  -0.00000   0.00000   0.00000   0.00000  -0.00000
-24.03004   0.00000  -0.22332   0.00000  -2.79152   0.00000  -0.20002   0.00000   0.00000   0.00000  -0.62664   0.00000   0.00000   0.00000  -0.00148   0.00000  -0.00000   0.00000  -0.00250   0.00000  -0.00000   0.00000   0.00000   0.00000  -0.16426   0.00000  -0.00003   0.00000  -0.00150   0.00000   0.00467   0.00000   0.00000   0.00000  -1.63398   0.00000   0.00000   0.00000  -0.00000   0.00000  -0.00149   0.00000  -0.00008   0.00000  -0.16422   0.00000  -0.00000   0.00000  -0.00000   0.00000  -0.00000   0.00000  -0.00001   0.00000  -0.25050   0.00000  -3.13124   0.00000  -0.21810   0.00000   0.00000   0.00000  -0.64486   0.00000  -0.00000   0.00000  -0.00162   0.00000  -0.00000   0.00000  -0.00211   0.00000  -0.00000   0.00000  -0.00000   0.00000  -0.26756   0.00000  -0.00011   0.00000  -0.00969   0.00000   0.00228   0.00000   0.00000   0.00000  -1.71077   0.00000  -0.00000   0.00000  -0.00000   0.00000  -0.00994   0.00000  -0.00014   0.00000  -0.26862   0.00000  -0.00000   0.00000  -0.00000   0.00000   0.00000   0.00000  -0.00000
-23.97997   0.00000  -0.22332   0.00000  -2.79152   0.00000  -0.20002   0.00000   0.00000   0.00000  -0.62664   0.00000   0.00000   0.00000  -0.00148   0.00000  -0.00000   0.00000  -0.00250   0.00000  -0.00000   0.00000   0.00000   0.00000  -0.16426   0.00000  -0.00003   0.00000  -0.00150   0.00000   0.00467   0.00000   0.00000   0.00000  -1.63398   0.00000   0.00000   0.00000  -0.00000   0.00000  -0.00149   0.00000  -0.00008   0.00000  -0.16422   0.00000  -0.00000   0.00000  -0.00000   0.00000  -0.00000   0.00000  -0.00001   0.00000  -0.25050   0.00000  -3.13124   0.00000  -0.21810   0.00000   0.00000   0.00000  -0.64486   0.00000  -0.00000   0.00000  -0.00162   0.00000  -0.00000   0.00000  -0.00211   0.00000  -0.00000   0.00000  -0.00000   0.00000  -0.26756   0.00000  -0.00011   0.00000  -0.00969   0.00000   0.00228   0.00000   0.00000   0.00000  -1.71077   0.00000  -0.00000   0.00000  -0.00000   0.00000  -0.00994   0.00000  -0.00014   0.00000  -0.26862   0.00000  -0.00000   0.00000  -0.00000   0.00000   0.00000   0.00000  -0.00000
-23.92991   0.00000  -0.22332   0.00000  -2.79152   0.00000  -0.20002   0.00000   0.00000   0.00000  -0.62664   0.00000   0.00000   0.00000  -0.00148   0.00000  -0.00000   0.00000  -0.00250   0.00000  -0.00000   0.00000   0.00000   0.00000  -0.16426   0.00000  -0.00003   0.00000  -0.00150   0.00000   0.00467   0.00000   0.00000   0.00000  -1.63398   0.00000   0.00000   0.00000  -0.00000   0.00000  -0.00149   0.00000  -0.00008   0.00000  -0.16422   0.00000  -0.00000   0.00000  -0.00000   0.00000  -0.00000   0.00000  -0.00001   0.00000  -0.25050   0.00000  -3.13124   0.00000  -0.21810   0.00000   0.00000   0.00000  -0.64486   0.00000  -0.00000   0.00000  -0.00162   0.00000  -0.00000   0.00000  -0.00211   0.00000  -0.00000   0.00000  -0.00000   0.00000  -0.26756   0.00000  -0.00011   0.00000  -0.00969   0.00000   0.00228   0.00000   0.00000   0.00000  -1.71077   0.00000  -0.00000   0.00000  -0.00000   0.00000  -0.00994   0.00000  -0.00014   0.00000  -0.26862   0.00000  -0.00000   0.00000  -0.00000   0.00000   0.00000   0.00000  -0.00000
-23.87985   0.00000  -0.22332   0.00000  -2.79152   0.00000  -0.20002   0.00000   0.00000   0.00000  -0.62664   0.00000   0.00000   0.00000  -0.00148   0.00000  -0.00000   0.00000  -0.00250   0.00000  -0.00000   0.00000   0.00000   0.00000  -0.16426   0.00000  -0.00003   0.00000  -0.00150   0.00000   0.00467   0.00000   0.00000   0.00000  -1.63398   0.00000   0.00000   0.00000  -0.00000   0.00000  -0.00149   0.00000  -0.00008   0.00000  -0.16422   0.00000  -0.00000   0.00000  -0.00000   0.00000  -0.00000   0.00000  -0.00001   0.00000  -0.25050   0.00000  -3.13124   0.00000  -0.21810   0.00000   0.00000   0.00000  -0.64486   0.00000  -0.00000   0.00000  -0.00162   0.00000  -0.00000   0.00000  -0.00211   0.00000  -0.00000   0.00000  -0.00000   0.00000  -0.26756   0.00000  -0.00011   0.00000  -0.00969   0.00000   0.00228   0.00000   0.00000   0.00000  -1.71077   0.00000  -0.00000   0.00000  -0.00000   0.00000  -0.00994   0.00000  -0.00014   0.00000  -0.26862   0.00000  -0.00000   0.00000  -0.00000   0.00000   0.00000   0.00000  -0.00000
-23.82979   0.00000  -0.22332   0.00000  -2.79152   0.00000  -0.20002   0.00000   0.00000   0.00000  -0.62664   0.00000   0.00000   0.00000  -0.00148   0.00000  -0.00000   0.00000  -0.00250   0.00000  -0.00000   0.00000   0.00000   0.00000  -0.16426   0.00000  -0.00003   0.00000  -0.00150   0.00000   0.00467   0.00000   0.00000   0.00000  -1.63398   0.00000   0.00000   0.00000  -0.00000   0.00000  -0.00149   0.00000  -0.00008   0.00000  -0.16422   0.00000  -0.00000   0.00000  -0.00000   0.00000  -0.00000   0.00000  -0.00001   0.00000  -0.25050   0.00000  -3.13124   0.00000  -0.21810   0.00000   0.00000   0.00000  -0.64486   0.00000  -0.00000   0.00000  -0.00162   0.00000  -0.00000   0.00000  -0.00211   0.00000  -0.00000   0.00000  -0.00000   0.00000  -0.26756   0.00000  -0.00011   0.00000  -0.00969   0.00000   0.00228   0.00000   0.00000   0.00000  -1.71077   0.00000  -0.00000   0.00000  -0.00000   0.00000  -0.00994   0.00000  -0.00014   0.00000  -0.26862   0.00000  -0.00000   0.00000  -0.00000   0.00000   0.00000   0.00000  -0.00000
-23.77972   0.00000  -0.22332   0.00000  -2.79152   0.00000  -0.20002   0.00000   0.00000   0.00000  -0.62664   0.00000   0.00000   0.00000  -0.00148   0.00000  -0.00000   0.00000  -0.00250   0.00000  -0.00000   0.00000   0.00000   0.00000  -0.16426   0.00000  -0.00003   0.00000  -0.00150   0.00000   0.00467   0.00000   0.00000   0.00000  -1.63398   0.00000   0.00000   0.00000  -0.00000   0.00000  -0.00149   0.00000  -0.00008   0.00000  -0.16422   0.00000  -0.00000   0.00000  -0.00000   0.00000  -0.00000   0.00000  -0.00001   0.00000  -0.25050   0.00000  -3.13124   0.00000  -0.21810   0.00000   0.00000   0.00000  -0.64486   0.00000  -0.00000   0.00000  -0.00162   0.00000  -0.00000   0.00000  -0.00211   0.00000  -0.00000   0.00000  -0.00000   0.00000  -0.26756   0.00000  -0.00011   0.00000  -0.00969   0.00000   0.00228   0.00000   0.00000   0.00000  -1.71077   0.00000  -0.00000   0.00000  -0.00000   0.00000  -0.00994   0.00000  -0.00014   0.00000  -0.26862   0.00000  -0.00000   0.00000  -0.00000   0.00000   0.00000   0.00000  -0.00000
-23.72966   0.00000  -0.22332   0.00000  -2.79152   0.00000  -0.20002   0.00000   0.00000   0.00000  -0.62664   0.00000   0.00000   0.00000  -0.00148   0.00000  -0.00000   0.00000  -0.00250   0.00000  -0.00000   0.00000   0.00000   0.00000  -0.16426   0.00000  -0.00003   0.00000  -0.00150   0.00000   0.00467   0.00000   0.00000   0.00000  -1.63398   0.00000   0.00000   0.00000  -0.00000   0.00000  -0.00149   0.00000  -0.00008   0.00000  -0.16422   0.00000  -0.00000   0.00000  -0.00000   0.00000  -0.00000   0.00000  -0.00001   0.00000  -0.25050   0.00000  -3.13124   0.00000  -0.21810   0.00000   0.00000   0.00000  -0.64486   0.00000  -0.00000   0.00000  -0.00162   0.00000  -0.00000   0.00000  -0.00211   0.00000  -0.00000   0.00000  -0.00000   0.00000  -0.26756   0.00000  -0.00011   0.00000  -0.00969   0.00000   0.00228   0.00000   0.00000   0.00000  -1.71077   0.00000  -0.00000   0.00000  -0.00000   0.00000  -0.00994   0.00000  -0.00014   0.00000  -0.26862   0.00000  -0.00000   0.00000  -0.00000   0.00000   0.00000   0.00000  -0.00000