ESCALE ; pCOHP file generated by LOBSTER. Energy is shifted such that the Fermi level lies at 0 eV.
        26          2        801  -2.05020e+01   1.95480e+01   4.52926e+00 
Average
No.1:La1->O3(2.2334009102838865)
No.1:La1[6s]->O3[2s](2.2334009102838865)
No.1:La1[6s]->O3[2p_y](2.2334009102838865)
No.1:La1[6s]->O3[2p_z](2.2334009102838865)
No.1:La1[6s]->O3[2p_x](2.2334009102838865)
No.1:La1[5d_xy]->O3[2s](2.2334009102838865)
No.1:La1[5d_xy]->O3[2p_y](2.2334009102838865)
No.1:La1[5d_xy]->O3[2p_z](2.2334009102838865)
No.1:La1[5d_xy]->O3[2p_x](2.2334009102838865)
No.1:La1[5d_yz]->O3[2s](2.2334009102838865)
No.1:La1[5d_yz]->O3[2p_y](2.2334009102838865)
No.1:La1[5d_yz]->O3[2p_z](2.2334009102838865)
No.1:La1[5d_yz]->O3[2p_x](2.2334009102838865)
No.1:La1[5d_z^2]->O3[2s](2.2334009102838865)
No.1:La1[5d_z^2]->O3[2p_y](2.2334009102838865)
No.1:La1[5d_z^2]->O3[2p_z](2.2334009102838865)
No.1:La1[5d_z^2]->O3[2p_x](2.2334009102838865)
No.1:La1[5d_xz]->O3[2s](2.2334009102838865)
No.1:La1[5d_xz]->O3[2p_y](2.2334009102838865)
No.1:La1[5d_xz]->O3[2p_z](2.2334009102838865)
No.1:La1[5d_xz]->O3[2p_x](2.2334009102838865)
No.1:La1[5d_x^2-y^2]->O3[2s](2.2334009102838865)
No.1:La1[5d_x^2-y^2]->O3[2p_y](2.2334009102838865)
No.1:La1[5d_x^2-y^2]->O3[2p_z](2.2334009102838865)
No.1:La1[5d_x^2-y^2]->O3[2p_x](2.2334009102838865)
-25.03129   0.00000  -0.03192   0.00000  -0.39906   0.00000   0.00184   0.00000  -0.10402   0.00000  -0.00000   0.00000  -0.10398   0.00000   0.00997   0.00000  -0.07425   0.00000   0.00000   0.00000  -0.07427   0.00000  -0.00000   0.00000  -0.00000   0.00000  -0.00287   0.00000   0.00000   0.00000   0.00393   0.00000  -0.02124   0.00000  -0.00000   0.00000  -0.02122   0.00000   0.00000   0.00000  -0.00000   0.00000  -0.00289   0.00000   0.00000   0.00000   0.00000   0.00000  -0.00500   0.00000   0.00000   0.00000  -0.00505   0.00000  -0.03404   0.00000  -0.42555   0.00000   0.00103   0.00000  -0.10918   0.00000  -0.00000   0.00000  -0.10912   0.00000   0.00921   0.00000  -0.07865   0.00000  -0.00000   0.00000  -0.07866   0.00000   0.00000   0.00000  -0.00000   0.00000  -0.00329   0.00000  -0.00000   0.00000   0.00388   0.00000  -0.02368   0.00000   0.00000   0.00000  -0.02367   0.00000   0.00000   0.00000  -0.00000   0.00000  -0.00346   0.00000  -0.00000   0.00000   0.00000   0.00000  -0.00495   0.00000   0.00000   0.00000  -0.00500
-24.98123   0.00000  -0.03192   0.00000  -0.39906   0.00000   0.00184   0.00000  -0.10402   0.00000  -0.00000   0.00000  -0.10398   0.00000   0.00997   0.00000  -0.07425   0.00000   0.00000   0.00000  -0.07427   0.00000  -0.00000   0.00000  -0.00000   0.00000  -0.00287   0.00000   0.00000   0.00000   0.00393   0.00000  -0.02124   0.00000  -0.00000   0.00000  -0.02122   0.00000   0.00000   0.00000  -0.00000   0.00000  -0.00289   0.00000   0.00000   0.00000   0.00000   0.00000  -0.00500   0.00000   0.00000   0.00000  -0.00505   0.00000  -0.03404   0.00000  -0.42555   0.00000   0.00103   0.00000  -0.10918   0.00000  -0.00000   0.00000  -0.10912   0.00000   0.00921   0.00000  -0.07865   0.00000  -0.00000   0.00000  -0.07866   0.00000   0.00000   0.00000  -0.00000   0.00000  -0.00329   0.00000  -0.00000   0.00000   0.00388   0.00000  -0.02368   0.00000   0.00000   0.00000  -0.02367   0.00000   0.00000   0.00000  -0.00000   0.00000  -0.00346   0.00000  -0.00000   0.00000   0.00000   0.00000  -0.00495   0.00000   0.00000   0.00000  -0.00500
-24.93116   0.00000  -0.03192   0.00000  -0.39906   0.00000   0.00184   0.00000  -0.10402   0.00000  -0.00000   0.00000  -0.10398   0.00000   0.00997   0.00000  -0.07425   0.00000   0.00000   0.00000  -0.07427   0.00000  -0.00000   0.00000  -0.00000   0.00000  -0.00287   0.00000   0.00000   0.00000   0.00393   0.00000  -0.02124   0.00000  -0.00000   0.00000  -0.02122   0.00000   0.00000   0.00000  -0.00000   0.00000  -0.00289   0.00000   0.00000   0.00000   0.00000   0.00000  -0.00500   0.00000   0.00000   0.00000  -0.00505   0.00000  -0.03404   0.00000  -0.42555   0.00000   0.00103   0.00000  -0.10918   0.00000  -0.00000   0.00000  -0.10912   0.00000   0.00921   0.00000  -0.07865   0.00000  -0.00000   0.00000  -0.07866   0.00000   0.00000   0.00000  -0.00000   0.00000  -0.00329   0.00000  -0.00000   0.00000   0.00388   0.00000  -0.02368   0.00000   0.00000   0.00000  -0.02367   0.00000   0.00000   0.00000  -0.00000   0.00000  -0.00346   0.00000  -0.00000   0.00000   0.00000   0.00000  -0.00495   0.00000   0.00000   0.00000  -0.00500
-24.88110   0.00000  -0.03192   0.00000  -0.39906   0.00000   0.00184   0.00000  -0.10402   0.00000  -0.00000   0.00000  -0.10398   0.00000   0.00997   0.00000  -0.07425   0.00000   0.00000   0.00000  -0.07427   0.00000  -0.00000   0.00000  -0.00000   0.00000  -0.00287   0.00000   0.00000   0.00000   0.00393   0.00000  -0.02124   0.00000  -0.00000   0.00000  -0.02122   0.00000   0.00000   0.00000  -0.00000   0.00000  -0.00289   0.00000   0.00000   0.00000   0.00000   0.00000  -0.00500   0.00000   0.00000   0.00000  -0.00505   0.00000  -0.03404   0.00000  -0.42555   0.00000   0.00103   0.00000  -0.10918   0.00000  -0.00000   0.00000  -0.10912   0.00000   0.00921   0.00000  -0.07865   0.00000  -0.00000   0.00000  -0.07866   0.00000   0.00000   0.00000  -0.00000   0.00000  -0.00329   0.00000  -0.00000   0.00000   0.00388   0.00000  -0.02368   0.00000   0.00000   0.00000  -0.02367   0.00000   0.00000   0.00000  -0.00000   0.00000  -0.00346   0.00000  -0.00000   0.00000   0.00000   0.00000  -0.00495   0.00000   0.00000   0.00000  -0.00500
-24.83104   0.00000  -0.03192   0.00000  -0.39906   0.00000   0.00184   0.00000  -0.10402   0.00000  -0.00000   0.00000  -0.10398   0.00000   0.00997   0.00000  -0.07425   0.00000   0.00000   0.00000  -0.07427   0.00000  -0.00000   0.00000  -0.00000   0.00000  -0.00287   0.00000   0.00000   0.00000   0.00393   0.00000  -0.02124   0.00000  -0.00000   0.00000  -0.02122   0.00000   0.00000   0.00000  -0.00000   0.00000  -0.00289   0.00000   0.00000   0.00000   0.00000   0.00000  -0.00500   0.00000   0.00000   0.00000  -0.00505   0.00000  -0.03404   0.00000  -0.42555   0.00000   0.00103   0.00000  -0.10918   0.00000  -0.00000   0.00000  -0.10912   0.00000   0.00921   0.00000  -0.07865   0.00000  -0.00000   0.00000  -0.07866   0.00000   0.00000   0.00000  -0.00000   0.00000  -0.00329   0.00000  -0.00000   0.00000   0.00388   0.00000  -0.02368   0.00000   0.00000   0.00000  -0.02367   0.00000   0.00000   0.00000  -0.00000   0.00000  -0.00346   0.00000  -0.00000   0.00000   0.00000   0.00000  -0.00495   0.00000   0.00000   0.00000  -0.00500
-24.78098   0.00000  -0.03192   0.00000  -0.39906   0.00000   0.00184   0.00000  -0.10402   0.00000  -0.00000   0.00000  -0.10398   0.00000   0.00997   0.00000  -0.07425   0.00000   0.00000   0.00000  -0.07427   0.00000  -0.00000   0.00000  -0.00000   0.00000  -0.00287   0.00000   0.00000   0.00000   0.00393   0.00000  -0.02124   0.00000  -0.00000   0.00000  -0.02122   0.00000   0.00000   0.00000  -0.00000   0.00000  -0.00289   0.00000   0.00000   0.00000   0.00000   0.00000  -0.00500   0.00000   0.00000   0.00000  -0.00505   0.00000  -0.03404   0.00000  -0.42555   0.00000   0.00103   0.00000  -0.10918   0.00000  -0.00000   0.00000  -0.10912   0.00000   0.00921   0.00000  -0.07865   0.00000  -0.00000   0.00000  -0.07866   0.00000   0.00000   0.00000  -0.00000   0.00000  -0.00329   0.00000  -0.00000   0.00000   0.00388   0.00000  -0.02368   0.00000   0.00000   0.00000  -0.02367   0.00000   0.00000   0.00000  -0.00000   0.00000  -0.00346   0.00000  -0.00000   0.00000   0.00000   0.00000  -0.00495   0.00000   0.00000   0.00000  -0.00500
-24.73091   0.00000  -0.03192   0.00000  -0.39906   0.00000   0.00184   0.00000  -0.10402   0.00000  -0.00000   0.00000  -0.10398   0.00000   0.00997   0.00000  -0.07425   0.00000   0.00000   0.00000  -0.07427   0.00000  -0.00000   0.00000  -0.00000   0.00000  -0.00287   0.00000   0.00000   0.00000   0.00393   0.00000  -0.02124   0.00000  -0.00000   0.00000  -0.02122   0.00000   0.00000   0.00000  -0.00000   0.00000  -0.00289   0.00000   0.00000   0.00000   0.00000   0.00000  -0.00500   0.00000   0.00000   0.00000  -0.00505   0.00000  -0.03404   0.00000  -0.42555   0.00000   0.00103   0.00000  -0.10918   0.00000  -0.00000   0.00000  -0.10912   0.00000   0.00921   0.00000  -0.07865   0.00000  -0.00000   0.00000  -0.07866   0.00000   0.00000   0.00000  -0.00000   0.00000  -0.00329   0.00000  -0.00000   0.00000   0.00388   0.00000  -0.02368   0.00000   0.00000   0.00000  -0.02367   0.00000   0.00000   0.00000  -0.00000   0.00000  -0.00346   0.00000  -0.00000   0.00000   0.00000   0.00000  -0.00495   0.00000   0.00000   0.00000  -0.00500
-24.68085   0.00000  -0.03192   0.00000  -0.39906   0.00000   0.00184   0.00000  -0.10402   0.00000  -0.00000   0.00000  -0.10398   0.00000   0.00997   0.00000  -0.07425   0.00000   0.00000   0.00000  -0.07427   0.00000  -0.00000   0.00000  -0.00000   0.00000  -0.00287   0.00000   0.00000   0.00000   0.00393   0.00000  -0.02124   0.00000  -0.00000   0.00000  -0.02122   0.00000   0.00000   0.00000  -0.00000   0.00000  -0.00289   0.00000   0.00000   0.00000   0.00000   0.00000  -0.00500   0.00000   0.00000   0.00000  -0.00505   0.00000  -0.03404   0.00000  -0.42555   0.00000   0.00103   0.00000  -0.10918   0.00000  -0.00000   0.00000  -0.10912   0.00000   0.00921   0.00000  -0.07865   0.00000  -0.00000   0.00000  -0.07866   0.00000   0.00000   0.00000  -0.00000   0.00000  -0.00329   0.00000  -0.00000   0.00000   0.00388   0.00000  -0.02368   0.00000   0.00000   0.00000  -0.02367   0.00000   0.00000   0.00000  -0.00000   0.00000  -0.00346   0.00000  -0.00000   0.00000   0.00000   0.00000  -0.00495   0.00000   0.00000   0.00000  -0.00500
-24.63079   0.00000  -0.03192   0.00000  -0.39906   0.00000   0.00184   0.00000  -0.10402   0.00000  -0.00000   0.00000  -0.10398   0.00000   0.00997   0.00000  -0.07425   0.00000   0.00000   0.00000  -0.07427   0.00000  -0.00000   0.00000  -0.00000   0.00000  -0.00287   0.00000   0.00000   0.00000   0.00393   0.00000  -0.02124   0.00000  -0.00000   0.00000  -0.02122   0.00000   0.00000   0.00000  -0.00000   0.00000  -0.00289   0.00000   0.00000   0.00000   0.00000   0.00000  -0.00500   0.00000   0.00000   0.00000  -0.00505   0.00000  -0.03404   0.00000  -0.42555   0.00000   0.00103   0.00000  -0.10918   0.00000  -0.00000   0.00000  -0.10912   0.00000   0.00921   0.00000  -0.07865   0.00000  -0.00000   0.00000  -0.07866   0.00000   0.00000   0.00000  -0.00000   0.00000  -0.00329   0.00000  -0.00000   0.00000   0.00388   0.00000  -0.02368   0.00000   0.00000   0.00000  -0.02367   0.00000   0.00000   0.00000  -0.00000   0.00000  -0.00346   0.00000  -0.00000   0.00000   0.00000   0.00000  -0.00495   0.00000   0.00000   0.00000  -0.00500
-24.58073   0.00000  -0.03192   0.00000  -0.39906   0.00000   0.00184   0.00000  -0.10402   0.00000  -0.00000   0.00000  -0.10398   0.00000   0.00997   0.00000  -0.07425   0.00000   0.00000   0.00000  -0.07427   0.00000  -0.00000   0.00000  -0.00000   0.00000  -0.00287   0.00000   0.00000   0.00000   0.00393   0.00000  -0.02124   0.00000  -0.00000   0.00000  -0.02122   0.00000   0.00000   0.00000  -0.00000   0.00000  -0.00289   0.00000   0.00000   0.00000   0.00000   0.00000  -0.00500   0.00000   0.00000   0.00000  -0.00505   0.00000  -0.03404   0.00000  -0.42555   0.00000   0.00103   0.00000  -0.10918   0.00000  -0.00000   0.00000  -0.10912   0.00000   0.00921   0.00000  -0.07865   0.00000  -0.00000   0.00000  -0.07866   0.00000   0.00000   0.00000  -0.00000   0.00000  -0.00329   0.00000  -0.00000   0.00000   0.00388   0.00000  -0.02368   0.00000   0.00000   0.00000  -0.02367   0.00000   0.00000   0.00000  -0.00000   0.00000  -0.00346   0.00000  -0.00000   0.00000   0.00000   0.00000  -0.00495   0.00000   0.00000   0.00000  -0.00500
-24.53066   0.00000  -0.03192   0.00000  -0.39906   0.00000   0.00184   0.00000  -0.10402   0.00000  -0.00000   0.00000  -0.10398   0.00000   0.00997   0.00000  -0.07425   0.00000   0.00000   0.00000  -0.07427   0.00000  -0.00000   0.00000  -0.00000   0.00000  -0.00287   0.00000   0.00000   0.00000   0.00393   0.00000  -0.02124   0.00000  -0.00000   0.00000  -0.02122   0.00000   0.00000   0.00000  -0.00000   0.00000  -0.00289   0.00000   0.00000   0.00000   0.00000   0.00000  -0.00500   0.00000   0.00000   0.00000  -0.00505   0.00000  -0.03404   0.00000  -0.42555   0.00000   0.00103   0.00000  -0.10918   0.00000  -0.00000   0.00000  -0.10912   0.00000   0.00921   0.00000  -0.07865   0.00000  -0.00000   0.00000  -0.07866   0.00000   0.00000   0.00000  -0.00000   0.00000  -0.00329   0.00000  -0.00000   0.00000   0.00388   0.00000  -0.02368   0.00000   0.00000   0.00000  -0.02367   0.00000   0.00000   0.00000  -0.00000   0.00000  -0.00346   0.00000  -0.00000   0.00000   0.00000   0.00000  -0.00495   0.00000   0.00000   0.00000  -0.00500
-24.48060   0.00000  -0.03192   0.00000  -0.39906   0.00000   0.00184   0.00000  -0.10402   0.00000  -0.00000   0.00000  -0.10398   0.00000   0.00997   0.00000  -0.07425   0.00000   0.00000   0.00000  -0.07427   0.00000  -0.00000   0.00000  -0.00000   0.00000  -0.00287   0.00000   0.00000   0.00000   0.00393   0.00000  -0.02124   0.00000  -0.00000   0.00000  -0.02122   0.00000   0.00000   0.00000  -0.00000   0.00000  -0.00289   0.00000   0.00000   0.00000   0.00000   0.00000  -0.00500   0.00000   0.00000   0.00000  -0.00505   0.00000  -0.03404   0.00000  -0.42555   0.00000   0.00103   0.00000  -0.10918   0.00000  -0.00000   0.00000  -0.10912   0.00000   0.00921   0.00000  -0.07865   0.00000  -0.00000   0.00000  -0.07866   0.00000   0.00000   0.00000  -0.00000   0.00000  -0.00329   0.00000  -0.00000   0.00000   0.00388   0.00000  -0.02368   0.00000   0.00000   0.00000  -0.02367   0.00000   0.00000   0.00000  -0.00000   0.00000  -0.00346   0.00000  -0.00000   0.00000   0.00000   0.00000  -0.00495   0.00000   0.00000   0.00000  -0.00500
-24.43054   0.00000  -0.03192   0.00000  -0.39906   0.00000   0.00184   0.00000  -0.10402   0.00000  -0.00000   0.00000  -0.10398   0.00000   0.00997   0.00000  -0.07425   0.00000   0.00000   0.00000  -0.07427   0.00000  -0.00000   0.00000  -0.00000   0.00000  -0.00287   0.00000   0.00000   0.00000   0.00393   0.00000  -0.02124   0.00000  -0.00000   0.00000  -0.02122   0.00000   0.00000   0.00000  -0.00000   0.00000  -0.00289   0.00000   0.00000   0.00000   0.00000   0.00000  -0.00500   0.00000   0.00000   0.00000  -0.00505   0.00000  -0.03404   0.00000  -0.42555   0.00000   0.00103   0.00000  -0.10918   0.00000  -0.00000   0.00000  -0.10912   0.00000   0.00921   0.00000  -0.07865   0.00000  -0.00000   0.00000  -0.07866   0.00000   0.00000   0.00000  -0.00000   0.00000  -0.00329   0.00000  -0.00000   0.00000   0.00388   0.00000  -0.02368   0.00000   0.00000   0.00000  -0.02367   0.00000   0.00000   0.00000  -0.00000   0.00000  -0.00346   0.00000  -0.00000   0.00000   0.00000   0.00000  -0.00495   0.00000   0.00000   0.00000  -0.00500
-24.38048   0.00000  -0.03192   0.00000  -0.39906   0.00000   0.00184   0.00000  -0.10402   0.00000  -0.00000   0.00000  -0.10398   0.00000   0.00997   0.00000  -0.07425   0.00000   0.00000   0.00000  -0.07427   0.00000  -0.00000   0.00000  -0.00000   0.00000  -0.00287   0.00000   0.00000   0.00000   0.00393   0.00000  -0.02124   0.00000  -0.00000   0.00000  -0.02122   0.00000   0.00000   0.00000  -0.00000   0.00000  -0.00289   0.00000   0.00000   0.00000   0.00000   0.00000  -0.00500   0.00000   0.00000   0.00000  -0.00505   0.00000  -0.03404   0.00000  -0.42555   0.00000   0.00103   0.00000  -0.10918   0.00000  -0.00000   0.00000  -0.10912   0.00000   0.00921   0.00000  -0.07865   0.00000  -0.00000   0.00000  -0.07866   0.00000   0.00000   0.00000  -0.00000   0.00000  -0.00329   0.00000  -0.00000   0.00000   0.00388   0.00000  -0.02368   0.00000   0.00000   0.00000  -0.02367   0.00000   0.00000   0.00000  -0.00000   0.00000  -0.00346   0.00000  -0.00000   0.00000   0.00000   0.00000  -0.00495   0.00000   0.00000   0.00000  -0.00500
-24.33041   0.00000  -0.03192   0.00000  -0.39906   0.00000   0.00184   0.00000  -0.10402   0.00000  -0.00000   0.00000  -0.10398   0.00000   0.00997   0.00000  -0.07425   0.00000   0.00000   0.00000  -0.07427   0.00000  -0.00000   0.00000  -0.00000   0.00000  -0.00287   0.00000   0.00000   0.00000   0.00393   0.00000  -0.02124   0.00000  -0.00000   0.00000  -0.02122   0.00000   0.00000   0.00000  -0.00000   0.00000  -0.00289   0.00000   0.00000   0.00000   0.00000   0.00000  -0.00500   0.00000   0.00000   0.00000  -0.00505   0.00000  -0.03404   0.00000  -0.42555   0.00000   0.00103   0.00000  -0.10918   0.00000  -0.00000   0.00000  -0.10912   0.00000   0.00921   0.00000  -0.07865   0.00000  -0.00000   0.00000  -0.07866   0.00000   0.00000   0.00000  -0.00000   0.00000  -0.00329   0.00000  -0.00000   0.00000   0.00388   0.00000  -0.02368   0.00000   0.00000   0.00000  -0.02367   0.00000   0.00000   0.00000  -0.00000   0.00000  -0.00346   0.00000  -0.00000   0.00000   0.00000   0.00000  -0.00495   0.00000   0.00000   0.00000  -0.00500
-24.28035   0.00000  -0.03192   0.00000  -0.39906   0.00000   0.00184   0.00000  -0.10402   0.00000  -0.00000   0.00000  -0.10398   0.00000   0.00997   0.00000  -0.07425   0.00000   0.00000   0.00000  -0.07427   0.00000  -0.00000   0.00000  -0.00000   0.00000  -0.00287   0.00000   0.00000   0.00000   0.00393   0.00000  -0.02124   0.00000  -0.00000   0.00000  -0.02122   0.00000   0.00000   0.00000  -0.00000   0.00000  -0.00289   0.00000   0.00000   0.00000   0.00000   0.00000  -0.00500   0.00000   0.00000   0.00000  -0.00505   0.00000  -0.03404   0.00000  -0.42555   0.00000   0.00103   0.00000  -0.10918   0.00000  -0.00000   0.00000  -0.10912   0.00000   0.00921   0.00000  -0.07865   0.00000  -0.00000   0.00000  -0.07866   0.00000   0.00000   0.00000  -0.00000   0.00000  -0.00329   0.00000  -0.00000   0.00000   0.00388   0.00000  -0.02368   0.00000   0.00000   0.00000  -0.02367   0.00000   0.00000   0.00000  -0.00000   0.00000  -0.00346   0.00000  -0.00000   0.00000   0.00000   0.00000  -0.00495   0.00000   0.00000   0.00000  -0.00500
-24.23029   0.00000  -0.03192   0.00000  -0.39906   0.00000   0.00184   0.00000  -0.10402   0.00000  -0.00000   0.00000  -0.10398   0.00000   0.00997   0.00000  -0.07425   0.00000   0.00000   0.00000  -0.07427   0.00000  -0.00000   0.00000  -0.00000   0.00000  -0.00287   0.00000   0.00000   0.00000   0.00393   0.00000  -0.02124   0.00000  -0.00000   0.00000  -0.02122   0.00000   0.00000   0.00000  -0.00000   0.00000  -0.00289   0.00000   0.00000   0.00000   0.00000   0.00000  -0.00500   0.00000   0.00000   0.00000  -0.00505   0.00000  -0.03404   0.00000  -0.42555   0.00000   0.00103   0.00000  -0.10918   0.00000  -0.00000   0.00000  -0.10912   0.00000   0.00921   0.00000  -0.07865   0.00000  -0.00000   0.00000  -0.07866   0.00000   0.00000   0.00000  -0.00000   0.00000  -0.00329   0.00000  -0.00000   0.00000   0.00388   0.00000  -0.02368   0.00000   0.00000   0.00000  -0.02367   0.00000   0.00000   0.00000  -0.00000   0.00000  -0.00346   0.00000  -0.00000   0.00000   0.00000   0.00000  -0.00495   0.00000   0.00000   0.00000  -0.00500
-24.18023   0.00000  -0.03192   0.00000  -0.39906   0.00000   0.00184   0.00000  -0.10402   0.00000  -0.00000   0.00000  -0.10398   0.00000   0.00997   0.00000  -0.07425   0.00000   0.00000   0.00000  -0.07427   0.00000  -0.00000   0.00000  -0.00000   0.00000  -0.00287   0.00000   0.00000   0.00000   0.00393   0.00000  -0.02124   0.00000  -0.00000   0.00000  -0.02122   0.00000   0.00000   0.00000  -0.00000   0.00000  -0.00289   0.00000   0.00000   0.00000   0.00000   0.00000  -0.00500   0.00000   0.00000   0.00000  -0.00505   0.00000  -0.03404   0.00000  -0.42555   0.00000   0.00103   0.00000  -0.10918   0.00000  -0.00000   0.00000  -0.10912   0.00000   0.00921   0.00000  -0.07865   0.00000  -0.00000   0.00000  -0.07866   0.00000   0.00000   0.00000  -0.00000   0.00000  -0.00329   0.00000  -0.00000   0.00000   0.00388   0.00000  -0.02368   0.00000   0.00000   0.00000  -0.02367   0.00000   0.00000   0.00000  -0.00000   0.00000  -0.00346   0.00000  -0.00000   0.00000   0.00000   0.00000  -0.00495   0.00000   0.00000   0.00000  -0.00500
-24.13016   0.00000  -0.03192   0.00000  -0.39906   0.00000   0.00184   0.00000  -0.10402   0.00000  -0.00000   0.00000  -0.10398   0.00000   0.00997   0.00000  -0.07425   0.00000   0.00000   0.00000  -0.07427   0.00000  -0.00000   0.00000  -0.00000   0.00000  -0.00287   0.00000   0.00000   0.00000   0.00393   0.00000  -0.02124   0.00000  -0.00000   0.00000  -0.02122   0.00000   0.00000   0.00000  -0.00000   0.00000  -0.00289   0.00000   0.00000   0.00000   0.00000   0.00000  -0.00500   0.00000   0.00000   0.00000  -0.00505   0.00000  -0.03404   0.00000  -0.42555   0.00000   0.00103   0.00000  -0.10918   0.00000  -0.00000   0.00000  -0.10912   0.00000   0.00921   0.00000  -0.07865   0.00000  -0.00000   0.00000  -0.07866   0.00000   0.00000   0.00000  -0.00000   0.00000  -0.00329   0.00000  -0.00000   0.00000   0.00388   0.00000  -0.02368   0.00000   0.00000   0.00000  -0.02367   0.00000   0.00000   0.00000  -0.00000   0.00000  -0.00346   0.00000  -0.00000   0.00000   0.00000   0.00000  -0.00495   0.00000   0.00000   0.00000  -0.00500
-24.08010   0.00000  -0.03192   0.00000  -0.39906   0.00000   0.00184   0.00000  -0.10402   0.00000  -0.00000   0.00000  -0.10398   0.00000   0.00997   0.00000  -0.07425   0.00000   0.00000   0.00000  -0.07427   0.00000  -0.00000   0.00000  -0.00000   0.00000  -0.00287   0.00000   0.00000   0.00000   0.00393   0.00000  -0.02124   0.00000  -0.00000   0.00000  -0.02122   0.00000   0.00000   0.00000  -0.00000   0.00000  -0.00289   0.00000   0.00000   0.00000   0.00000   0.00000  -0.00500   0.00000   0.00000   0.00000  -0.00505   0.00000  -0.03404   0.00000  -0.42555   0.00000   0.00103   0.00000  -0.10918   0.00000  -0.00000   0.00000  -0.10912   0.00000   0.00921   0.00000  -0.07865   0.00000  -0.00000   0.00000  -0.07866   0.00000   0.00000   0.00000  -0.00000   0.00000  -0.00329   0.00000  -0.00000   0.00000   0.00388   0.00000  -0.02368   0.00000   0.00000   0.00000  -0.02367   0.00000   0.00000   0.00000  -0.00000   0.00000  -0.00346   0.00000  -0.00000   0.00000   0.00000   0.00000  -0.00495   0.00000   0.00000   0.00000  -0.00500
-24.03004   0.00000  -0.03192   0.00000  -0.39906   0.00000   0.00184   0.00000  -0.10402   0.00000  -0.00000   0.00000  -0.10398   0.00000   0.00997   0.00000  -0.07425   0.00000   0.00000   0.00000  -0.07427   0.00000  -0.00000   0.00000  -0.00000   0.00000  -0.00287   0.00000   0.00000   0.00000   0.00393   0.00000  -0.02124   0.00000  -0.00000   0.00000  -0.02122   0.00000   0.00000   0.00000  -0.00000   0.00000  -0.00289   0.00000   0.00000   0.00000   0.00000   0.00000  -0.00500   0.00000   0.00000   0.00000  -0.00505   0.00000  -0.03404   0.00000  -0.42555   0.00000   0.00103   0.00000  -0.10918   0.00000  -0.00000   0.00000  -0.10912   0.00000   0.00921   0.00000  -0.07865   0.00000  -0.00000   0.00000  -0.07866   0.00000   0.00000   0.00000  -0.00000   0.00000  -0.00329   0.00000  -0.00000   0.00000   0.00388   0.00000  -0.02368   0.00000   0.00000   0.00000  -0.02367   0.00000   0.00000   0.00000  -0.00000   0.00000  -0.00346   0.00000  -0.00000   0.00000   0.00000   0.00000  -0.00495   0.00000   0.00000   0.00000  -0.00500
-23.97997   0.00000  -0.03192   0.00000  -0.39906   0.00000   0.00184   0.00000  -0.10402   0.00000  -0.00000   0.00000  -0.10398   0.00000   0.00997   0.00000  -0.07425   0.00000   0.00000   0.00000  -0.07427   0.00000  -0.00000   0.00000  -0.00000   0.00000  -0.00287   0.00000   0.00000   0.00000   0.00393   0.00000  -0.02124   0.00000  -0.00000   0.00000  -0.02122   0.00000   0.00000   0.00000  -0.00000   0.00000  -0.00289   0.00000   0.00000   0.00000   0.00000   0.00000  -0.00500   0.00000   0.00000   0.00000  -0.00505   0.00000  -0.03404   0.00000  -0.42555   0.00000   0.00103   0.00000  -0.10918   0.00000  -0.00000   0.00000  -0.10912   0.00000   0.00921   0.00000  -0.07865   0.00000  -0.00000   0.00000  -0.07866   0.00000   0.00000   0.00000  -0.00000   0.00000  -0.00329   0.00000  -0.00000   0.00000   0.00388   0.00000  -0.02368   0.00000   0.00000   0.00000  -0.02367   0.00000   0.00000   0.00000  -0.00000   0.00000  -0.00346   0.00000  -0.00000   0.00000   0.00000   0.00000  -0.00495   0.00000   0.00000   0.00000  -0.00500
-23.92991   0.00000  -0.03192   0.00000  -0.39906   0.00000   0.00184   0.00000  -0.10402   0.00000  -0.00000   0.00000  -0.10398   0.00000   0.00997   0.00000  -0.07425   0.00000   0.00000   0.00000  -0.07427   0.00000  -0.00000   0.00000  -0.00000   0.00000  -0.00287   0.00000   0.00000   0.00000   0.00393   0.00000  -0.02124   0.00000  -0.00000   0.00000  -0.02122   0.00000   0.00000   0.00000  -0.00000   0.00000  -0.00289   0.00000   0.00000   0.00000   0.00000   0.00000  -0.00500   0.00000   0.00000   0.00000  -0.00505   0.00000  -0.03404   0.00000  -0.42555   0.00000   0.00103   0.00000  -0.10918   0.00000  -0.00000   0.00000  -0.10912   0.00000   0.00921   0.00000  -0.07865   0.00000  -0.00000   0.00000  -0.07866   0.00000   0.00000   0.00000  -0.00000   0.00000  -0.00329   0.00000  -0.00000   0.00000   0.00388   0.00000  -0.02368   0.00000   0.00000   0.00000  -0.02367   0.00000   0.00000   0.00000  -0.00000   0.00000  -0.00346   0.00000  -0.00000   0.00000   0.00000   0.00000  -0.00495   0.00000   0.00000   0.00000  -0.00500
-23.87985   0.00000  -0.03192   0.00000  -0.39906   0.00000   0.00184   0.00000  -0.10402   0.00000  -0.00000   0.00000  -0.10398   0.00000   0.00997   0.00000  -0.07425   0.00000   0.00000   0.00000  -0.07427   0.00000  -0.00000   0.00000  -0.00000   0.00000  -0.00287   0.00000   0.00000   0.00000   0.00393   0.00000  -0.02124   0.00000  -0.00000   0.00000  -0.02122   0.00000   0.00000   0.00000  -0.00000   0.00000  -0.00289   0.00000   0.00000   0.00000   0.00000   0.00000  -0.00500   0.00000   0.00000   0.00000  -0.00505   0.00000  -0.03404   0.00000  -0.42555   0.00000   0.00103   0.00000  -0.10918   0.00000  -0.00000   0.00000  -0.10912   0.00000   0.00921   0.00000  -0.07865   0.00000  -0.00000   0.00000  -0.07866   0.00000   0.00000   0.00000  -0.00000   0.00000  -0.00329   0.00000  -0.00000   0.00000   0.00388   0.00000  -0.02368   0.00000   0.00000   0.00000  -0.02367   0.00000   0.00000   0.00000  -0.00000   0.00000  -0.00346   0.00000  -0.00000   0.00000   0.00000   0.00000  -0.00495   0.00000   0.00000   0.00000  -0.00500
-23.82979   0.00000  -0.03192   0.00000  -0.39906   0.00000   0.00184   0.00000  -0.10402   0.00000  -0.00000   0.00000  -0.10398   0.00000   0.00997   0.00000  -0.07425   0.00000   0.00000   0.00000  -0.07427   0.00000  -0.00000   0.00000  -0.00000   0.00000  -0.00287   0.00000   0.00000   0.00000   0.00393   0.00000  -0.02124   0.00000  -0.00000   0.00000  -0.02122   0.00000   0.00000   0.00000  -0.00000   0.00000  -0.00289   0.00000   0.00000   0.00000   0.00000   0.00000  -0.00500   0.00000   0.00000   0.00000  -0.00505   0.00000  -0.03404   0.00000  -0.42555   0.00000   0.00103   0.00000  -0.10918   0.00000  -0.00000   0.00000  -0.10912   0.00000   0.00921   0.00000  -0.07865   0.00000  -0.00000   0.00000  -0.07866   0.00000   0.00000   0.00000  -0.00000   0.00000  -0.00329   0.00000  -0.00000   0.00000   0.00388   0.00000  -0.02368   0.00000   0.00000   0.00000  -0.02367   0.00000   0.00000   0.00000  -0.00000   0.00000  -0.00346   0.00000  -0.00000   0.00000   0.00000   0.00000  -0.00495   0.00000   0.00000   0.00000  -0.00500
-23.77972   0.00000  -0.03192   0.00000  -0.39906   0.00000   0.00184   0.00000  -0.10402   0.00000  -0.00000   0.00000  -0.10398   0.00000   0.00997   0.00000  -0.07425   0.00000   0.00000   0.00000  -0.07427   0.00000  -0.00000   0.00000  -0.00000   0.00000  -0.00287   0.00000   0.00000   0.00000   0.00393   0.00000  -0.02124   0.00000  -0.00000   0.00000  -0.02122   0.00000   0.00000   0.00000  -0.00000   0.00000  -0.00289   0.00000   0.00000   0.00000   0.00000   0.00000  -0.00500   0.00000   0.00000   0.00000  -0.00505   0.00000  -0.03404   0.00000  -0.42555   0.00000   0.00103   0.00000  -0.10918   0.00000  -0.00000   0.00000  -0.10912   0.00000   0.00921   0.00000  -0.07865   0.00000  -0.00000   0.00000  -0.07866   0.00000   0.00000   0.00000  -0.00000   0.00000  -0.00329   0.00000  -0.00000   0.00000   0.00388   0.00000  -0.02368   0.00000   0.00000   0.00000  -0.02367   0.00000   0.00000   0.00000  -0.00000   0.00000  -0.00346   0.00000  -0.00000   0.00000   0.00000   0.00000  -0.00495   0.00000   0.00000   0.00000  -0.00500
-23.72966   0.00000  -0.03192   0.00000  -0.39906   0.00000   0.00184   0.00000  -0.10402   0.00000  -0.00000   0.00000  -0.10398   0.00000   0.00997   0.00000  -0.07425   0.00000   0.00000   0.00000  -0.07427   0.00000  -0.00000   0.00000  -0.00000   0.00000  -0.00287   0.00000   0.00000   0.00000   0.00393   0.00000  -0.02124   0.00000  -0.00000   0.00000  -0.02122   0.00000   0.00000   0.00000  -0.00000   0.00000  -0.00289   0.00000   0.00000   0.00000   0.00000   0.00000  -0.00500   0.00000   0.00000   0.00000  -0.00505   0.00000  -0.03404   0.00000  -0.42555   0.00000   0.00103   0.00000  -0.10918   0.00000  -0.00000   0.00000  -0.10912   0.00000   0.00921   0.00000  -0.07865   0.00000  -0.00000   0.00000  -0.07866   0.00000   0.00000   0.00000  -0.00000   0.00000  -0.00329   0.00000  -0.00000   0.00000   0.00388   0.00000  -0.02368   0.00000   0.00000   0.00000  -0.02367   0.00000   0.00000   0.00000  -0.00000   0.00000  -0.00346   0.00000  -0.00000   0.00000   0.00000   0.00000  -0.00495   0.00000   0.00000   0.00000  -0.00500